ITEM: TIMESTEP
0
ITEM: NUMBER OF ATOMS
4320
ITEM: BOX BOUNDS xy xz yz pp pp pp 
0 19.6645 0.35448
0 19.31 0
0 9.655 0
ITEM: ATOMS id type x y z ix iy iz D2 
1232 1 0.353936 0.714342 1.22373 0 0 0 1.17541e-29 
3427 1 1.1252 0.39474 0.569155 1 1 1 3.82469e-30 
1106 1 0.643245 1.43248 0.38597 0 0 0 5.10867e-30 
191 1 1.25835 1.06004 1.41288 0 0 0 1.48206e-30 
1189 1 1.97134 1.05814 0.452607 0 0 0 7.76523e-31 
3040 1 2.77177 0.357459 1.06641 1 0 0 9.14497e-30 
3774 2 2.8645 1.13169 0.742721 0 1 -1 1.62265e-30 
1910 1 9.66049 4.12752 2.87013 0 1 1 4.51985e-29 
3766 2 7.62364 3.34082 4.74746 0 1 0 3.44968e-29 
1071 1 3.9082 0.745682 0.844196 0 0 0 2.50951e-30 
80 1 3.40769 1.4592 1.43669 0 0 0 1.59868e-30 
3258 1 0.234652 0.156159 3.78281 1 1 0 9.55521e-30 
870 1 5.90694 0.719544 0.496511 0 1 1 6.09404e-30 
3953 2 5.84352 0.523461 1.33467 1 0 -1 5.93486e-30 
1224 1 6.48754 1.56622 0.838554 0 0 1 5.28712e-30 
766 1 4.99585 0.681454 0.912782 0 1 0 3.32939e-30 
1627 1 6.37052 4.15716 3.73053 0 0 1 5.45964e-30 
572 1 6.75105 0.361954 1.08497 0 0 0 5.01732e-30 
3848 2 7.37522 1.11037 0.685826 0 0 1 3.80612e-30 
1215 1 7.74939 0.490841 1.2454 0 0 1 3.44386e-30 
1300 1 7.06885 1.19982 1.58613 0 1 0 6.28835e-30 
994 1 8.79666 3.42639 3.26992 0 0 0 6.86742e-30 
1330 1 8.73921 0.805051 0.804002 0 1 0 5.55432e-30 
1295 1 1.17849 0.0581128 3.12837 0 1 0 2.72653e-30 
1074 1 9.64602 0.939652 1.31029 0 0 0 1.10417e-29 
2055 1 8.02982 1.5394 1.13091 0 0 0 5.72669e-30 
4171 2 0.218839 3.29181 0.270344 1 0 0 7.80229e-30 
3019 1 0.482848 1.76136 1.45253 1 0 0 9.15539e-30 
3546 2 0.562556 2.19797 0.771732 0 1 0 9.17775e-30 
2959 1 1.062 2.9192 0.504005 1 0 0 1.07603e-30 
538 1 1.43424 1.97059 0.858966 0 0 0 9.1248e-31 
606 1 0.986629 2.64549 1.54414 0 0 1 1.11741e-30 
163 1 0.145319 3.11558 2.01014 0 0 1 1.05996e-29 
1382 1 6.61883 4.02112 0.0474556 0 0 1 7.44751e-30 
1103 1 8.33516 0.156345 2.85914 0 0 0 6.21202e-30 
541 1 2.52136 1.91608 0.790809 0 0 0 3.87727e-30 
429 1 1.99253 2.76235 1.16319 0 1 1 6.0633e-31 
1392 1 3.59816 3.53877 0.173695 0 1 1 1.83043e-30 
1254 1 3.2274 2.70871 1.00122 0 0 1 1.96369e-30 
1932 1 4.5925 1.6994 0.371641 0 1 1 9.13159e-30 
719 1 3.47594 1.71452 0.425724 0 0 0 2.87473e-30 
698 1 4.22818 2.13285 1.34606 0 0 1 4.71955e-30 
611 1 4.16447 2.72031 0.43694 0 0 1 3.17749e-30 
3483 2 4.937 2.32785 0.842455 0 0 0 4.44947e-30 
4 1 5.23539 1.65611 1.42982 0 0 0 1.55183e-29 
2120 1 5.65761 1.77283 0.293842 0 0 1 3.51402e-29 
1229 1 5.84408 2.57353 0.892751 0 0 0 1.59211e-29 
703 1 5.12837 2.9205 1.47254 0 0 0 3.14776e-30 
3928 2 6.09125 1.98404 1.49837 0 1 0 3.48846e-30 
3772 2 8.17227 4.50579 0.502408 0 1 1 5.3009e-30 
3490 2 6.61663 2.41227 0.45443 0 0 1 7.07994e-30 
993 1 7.42166 1.93774 0.336975 0 0 0 5.60916e-30 
1247 1 7.03177 2.44363 1.19712 0 0 1 5.26096e-30 
1863 1 7.32283 3.13241 0.353436 0 1 0 6.59312e-30 
1565 1 9.16095 3.66756 4.33307 0 0 0 6.89141e-30 
1573 1 8.10977 2.59187 0.855281 0 0 0 5.6252e-30 
1339 1 9.10762 1.8735 0.810631 0 1 0 1.17795e-29 
1946 1 9.04078 3.06601 0.765919 0 1 0 3.79276e-29 
4090 2 8.34622 3.18738 1.48761 0 0 0 1.60228e-29 
2171 1 8.86853 2.57393 1.70689 0 0 0 3.66873e-29 
3695 2 7.53074 1.67864 4.72443 0 0 1 1.67589e-29 
1193 1 0.737804 3.64612 1.26077 0 0 0 4.21374e-30 
217 1 1.00189 4.65488 0.883791 0 0 1 4.68469e-30 
3157 1 1.64555 3.93462 0.681608 1 0 1 2.2687e-30 
146 1 2.52466 3.48513 0.451428 0 0 0 4.28544e-30 
3186 1 3.09464 4.20463 1.33258 1 0 1 7.80289e-31 
1196 1 2.00303 4.57887 1.48063 0 0 1 1.29837e-30 
2985 1 2.90418 4.40068 0.20479 1 0 0 1.3405e-30 
825 1 8.0257 3.61773 4.01573 0 1 0 5.87453e-30 
249 1 2.08873 0.0096724 0.35332 0 1 0 8.75973e-31 
11 1 4.00801 3.46986 1.18951 0 0 0 3.1352e-30 
255 1 3.92395 4.42181 0.670106 0 0 0 1.9659e-30 
291 1 0.363159 0.607266 4.80952 0 0 0 8.79176e-30 
1223 1 4.83752 4.12231 1.09208 0 0 1 2.90291e-30 
4147 2 4.78928 3.25053 0.731823 1 1 0 3.58013e-30 
616 1 5.63183 3.5292 0.630434 0 0 1 4.59034e-30 
1176 1 6.23983 4.4423 0.923077 0 0 1 2.84223e-30 
30 1 5.36621 4.70322 0.387957 0 0 0 3.81669e-30 
2004 1 6.61911 3.42663 0.999641 0 0 0 4.3903e-30 
3794 2 7.26221 3.92836 0.600633 0 0 0 9.00448e-30 
462 1 7.2226 4.30294 1.39338 0 1 0 5.51716e-30 
1034 1 7.43578 3.25502 1.61725 0 0 0 5.7745e-30 
716 1 2.68578 4.76485 2.42418 0 0 1 2.70307e-30 
2147 1 9.60629 1.13912 0.135636 0 0 1 7.6497e-30 
1501 1 8.06245 3.65397 0.816011 0 0 0 5.52485e-30 
1220 1 8.88731 4.3794 1.02039 0 0 1 6.26738e-30 
4018 2 9.16146 3.87392 0.360803 0 0 -1 7.70032e-30 
3980 2 0.518894 1.07903 2.08411 1 0 1 7.16832e-30 
3104 1 0.46856 0.824489 2.90129 1 0 0 8.28608e-30 
3013 1 0.75584 0.19143 2.13471 1 0 0 5.30882e-30 
3587 2 3.26703 4.18843 4.76382 0 0 0 1.71461e-30 
256 1 2.26244 1.14622 1.47205 0 1 0 1.00131e-30 
3190 1 1.70959 0.724994 2.33331 1 0 1 1.02302e-30 
3217 1 2.95707 1.14468 2.28444 1 1 0 2.52382e-30 
340 1 2.75875 0.114279 2.09876 0 1 0 1.0941e-30 
3573 2 3.44839 0.620015 1.63525 0 1 3 1.86822e-30 
3164 1 3.16588 0.454154 3.03868 1 0 1 1.27905e-30 
661 1 4.31584 1.14345 1.76573 0 0 1 4.78316e-30 
914 1 3.98887 0.217913 2.13617 0 1 1 1.61364e-30 
486 1 4.12831 1.01567 2.87543 0 0 0 2.31113e-30 
183 1 5.03972 1.3318 2.48226 0 0 0 2.90774e-30 
299 1 5.16835 0.431058 1.86649 0 1 0 5.91428e-30 
1770 1 5.9963 1.16812 1.94093 0 1 0 6.18165e-30 
1033 1 5.69947 0.43925 2.82614 0 0 0 5.2319e-30 
3683 2 5.90542 1.29057 2.82434 0 1 0 5.50169e-30 
4080 2 4.72838 0.439013 2.68394 1 0 0 1.05817e-29 
1971 1 6.29556 0.0909812 1.93099 0 1 0 3.31322e-30 
2016 1 6.75484 1.03203 2.67167 0 0 0 3.0141e-30 
806 1 7.38916 0.373479 2.15523 0 1 0 3.42884e-30 
1462 1 7.61494 0.758796 3.22547 0 1 1 5.65716e-30 
1423 1 6.68062 0.149782 3.16399 0 1 1 7.34233e-30 
1571 1 7.93986 1.23998 2.23111 0 0 0 4.95338e-30 
1510 1 3.10722 0.556288 0.0706957 0 0 0 1.70965e-30 
1957 1 9.57318 1.99913 3.04559 0 1 1 1.17281e-29 
635 1 8.58461 0.411451 1.89501 0 0 1 5.72155e-30 
890 1 8.86747 1.09618 2.79908 0 1 1 6.62949e-30 
1830 1 8.8818 1.4572 1.79473 0 1 0 7.89027e-30 
691 1 5.22199 2.75573 0.103189 0 0 1 7.69206e-30 
4133 2 1.38726 4.59406 3.19606 1 1 0 3.3612e-30 
2949 1 1.19023 1.73141 2.26495 1 1 1 9.5612e-31 
4245 2 0.530151 2.31631 2.20671 1 0 0 1.00666e-29 
315 1 0.643237 1.93807 3.0984 0 1 0 8.22616e-30 
2495 1 0.914916 2.89758 2.62549 1 0 0 4.38931e-30 
29 1 2.15452 1.68338 2.54532 0 0 0 1.24386e-30 
4302 2 1.47222 2.05845 3.0094 0 1 -1 1.63087e-30 
4225 2 1.79489 1.91647 1.65753 1 0 1 8.77767e-31 
1036 1 2.73981 2.15297 1.85432 0 0 0 1.69215e-30 
555 1 1.84924 2.62638 2.22788 0 0 0 5.43807e-31 
42 1 2.89729 2.52821 2.88775 0 0 0 1.83095e-30 
1115 1 2.78514 3.26792 1.75098 0 0 0 1.43664e-30 
1047 1 4.69705 2.38932 2.2302 0 0 0 2.63228e-30 
3124 1 3.7362 1.92287 2.33127 1 0 1 1.52933e-30 
505 1 3.73581 2.92852 2.17872 0 0 0 2.8312e-30 
3647 2 3.75941 2.5669 2.95194 0 1 1 1.50077e-30 
677 1 4.50323 2.99657 3.01281 0 0 1 1.20895e-29 
1435 1 5.72792 2.08437 2.33886 0 1 0 4.94543e-30 
3612 2 6.18691 2.752 2.72415 0 0 1 2.5496e-30 
57 1 6.26634 2.90713 1.82738 0 0 0 5.17932e-30 
1068 1 5.44262 3.09492 2.49542 0 0 0 2.16238e-30 
1387 1 6.41428 1.94492 3.16291 0 1 0 6.51685e-30 
1198 1 6.70821 1.93119 2.15131 0 0 1 6.19136e-30 
1214 1 7.4343 1.95654 2.92565 0 0 0 4.81185e-30 
1580 1 6.99464 2.91649 2.51093 0 0 0 4.5829e-30 
1003 1 7.7998 2.3194 2.01749 0 0 0 4.77778e-30 
16 1 0.733144 3.89664 0.0686222 0 0 0 6.45662e-30 
3676 2 9.33834 2.06015 2.25852 0 0 -1 9.78237e-30 
1485 1 8.5504 2.12802 2.72638 0 0 -1 7.25803e-30 
2307 1 9.29584 2.95703 2.57014 0 1 0 9.59859e-30 
3495 2 5.36706 0.0276267 0.305217 0 0 1 2.81814e-30 
4209 2 1.23307 4.33736 1.61488 1 0 1 3.92379e-30 
587 1 0.754084 4.01309 2.24689 0 0 0 4.90942e-30 
1433 1 1.31797 3.74801 3.21472 0 0 1 1.21124e-30 
593 1 1.70029 4.36834 2.45987 0 0 0 6.54168e-31 
1240 1 1.618 3.60634 1.75893 0 0 1 8.70666e-31 
4197 2 3.11863 4.23308 3.03636 1 0 0 1.38514e-30 
3540 2 2.41824 3.9548 2.03942 0 0 0 1.21406e-30 
2595 1 2.43044 3.43216 2.78574 1 0 0 1.10306e-30 
772 1 4.43944 0.00593352 0.155471 0 1 0 2.05782e-30 
695 1 3.45651 4.02971 2.33854 0 0 1 1.89632e-30 
2982 1 4.5889 3.74543 2.08385 1 0 0 1.97304e-30 
563 1 4.47473 4.11342 3.03218 0 0 0 1.05079e-29 
1442 1 4.22523 4.68361 1.75591 0 1 1 1.94901e-30 
1100 1 6.43582 4.57229 2.11589 0 0 0 6.20583e-30 
3204 1 0.200014 1.72678 4.80074 1 0 1 1.14924e-29 
13 1 5.33556 4.40379 2.45697 0 0 0 1.91443e-30 
997 1 5.73002 3.83951 1.69118 0 0 0 4.26991e-30 
1420 1 6.27729 3.7024 2.71967 0 1 1 6.52061e-30 
3478 2 6.77736 4.44827 2.92948 0 0 0 6.82425e-30 
4017 2 6.71675 3.70227 1.90248 0 1 0 4.99772e-30 
887 1 7.40237 3.93531 2.52885 0 1 1 4.99981e-30 
3951 2 7.98482 3.631 3.13105 0 0 1 6.12537e-30 
1277 1 8.2692 3.17659 2.38926 0 1 0 4.66242e-29 
649 1 8.24473 4.01501 1.8224 0 0 1 5.51467e-30 
709 1 9.14289 3.57507 1.68811 0 0 0 3.33169e-29 
1009 1 8.33646 4.48945 2.78104 0 0 0 1.6215e-29 
3742 2 8.86392 3.81214 2.51383 0 0 1 6.53005e-30 
2638 1 9.14917 4.60091 2.03204 0 0 1 5.69297e-30 
1486 1 9.49559 0.354295 2.42109 0 0 0 9.01037e-30 
296 1 4.29139 2.64254 4.76793 0 1 0 2.45575e-30 
1066 1 1.42613 1.23295 3.26339 0 0 0 9.76291e-31 
612 1 0.585064 1.23066 3.97072 0 0 0 8.02045e-30 
214 1 1.19411 0.379966 4.1908 0 0 0 5.52294e-30 
1210 1 8.90891 4.41775 3.65091 0 0 1 5.59198e-30 
14 1 2.16884 0.489863 3.26422 0 0 0 7.76836e-31 
4131 2 2.55867 1.20168 3.13968 0 1 0 1.52779e-30 
1688 1 7.96151 0.706977 0.158223 0 0 1 4.61476e-30 
2954 1 1.90021 1.17027 4.18001 1 0 0 5.15233e-31 
758 1 2.88414 0.961767 3.89134 0 1 0 8.13592e-31 
1460 1 4.66978 0.632634 4.56789 0 1 0 2.72728e-30 
115 1 3.78617 0.388363 3.99914 0 0 0 2.01728e-30 
3476 2 4.37327 1.1666 3.68965 0 0 0 2.25068e-30 
3330 1 3.75551 1.50804 4.26058 1 1 0 3.17629e-30 
991 1 4.75964 0.217394 3.56862 0 0 0 2.28592e-30 
129 1 0.807724 2.68719 4.70114 0 0 0 7.90699e-30 
704 1 5.22311 1.20522 3.51129 0 0 0 3.25285e-30 
631 1 5.71107 0.679357 4.52884 0 0 1 5.80312e-30 
659 1 6.21469 0.991395 3.61053 0 0 1 9.20456e-30 
3653 2 6.96109 1.34237 3.56898 0 1 -1 3.66819e-30 
1536 1 7.43737 1.01654 4.17514 0 0 0 1.70987e-29 
1109 1 6.68094 0.275041 4.25753 0 0 -1 3.81956e-30 
3801 2 7.46313 0.145756 4.65974 0 1 1 5.61417e-30 
41 1 3.50708 3.42633 4.53509 0 0 0 1.88739e-30 
1513 1 9.63402 4.67354 4.34879 0 0 0 8.4045e-30 
1623 1 8.31036 0.355978 4.80687 0 0 0 1.01571e-29 
1271 1 8.58741 0.696989 3.8054 0 1 0 3.52289e-29 
2133 1 9.30011 1.11267 4.4499 0 0 0 8.45349e-30 
4039 2 8.97469 1.4857 3.60357 0 1 1 9.8788e-30 
2140 1 7.10943 3.47396 3.37568 0 0 1 3.52603e-30 
1147 1 1.19796 2.02933 4.02923 0 0 1 4.84126e-30 
2579 1 0.806089 2.96013 3.72122 1 0 0 8.25591e-30 
90 1 4.65497 3.8437 0.0919906 0 0 0 3.66462e-30 
3012 1 1.76077 2.76229 3.36937 1 0 0 4.88673e-31 
1107 1 1.69118 3.29042 4.36429 0 0 0 1.19335e-30 
8 1 2.28831 1.91037 3.52573 0 0 0 1.60909e-30 
3062 1 2.18195 2.34498 4.5131 1 0 0 6.16531e-30 
4064 2 2.95262 1.88245 4.14305 0 1 1 1.66182e-30 
1844 1 2.79173 2.8699 3.8607 0 0 1 1.9124e-30 
2056 1 7.54672 4.40236 3.51192 0 0 0 4.62486e-30 
1180 1 3.37915 1.66747 3.33384 0 0 0 1.19194e-30 
26 1 4.41022 1.94454 3.16881 0 0 0 2.91465e-30 
3734 2 4.66129 2.59673 3.74432 1 0 0 1.78848e-30 
2554 1 3.74869 2.55677 3.84728 1 0 0 1.373e-30 
89 1 4.71392 1.88048 4.15948 0 0 0 1.84388e-30 
1618 1 5.35108 2.41913 3.29214 0 0 1 4.49878e-30 
69 1 5.94465 1.90145 4.20035 0 0 0 3.45863e-30 
1528 1 5.3138 2.85111 4.22498 0 0 0 2.74593e-30 
1102 1 6.19671 2.94388 3.63074 0 0 0 3.01611e-30 
3925 2 7.01227 2.59939 3.28439 0 1 0 5.52408e-30 
124 1 7.17629 2.07364 3.95398 0 0 0 4.64534e-30 
160 1 6.92473 2.94971 4.37543 0 0 0 5.15242e-30 
1488 1 7.85004 2.52488 4.62208 0 0 0 6.54499e-30 
521 1 7.9529 2.72633 3.40835 0 0 0 7.56088e-30 
351 1 1.75746 0.106314 1.52142 0 1 0 1.63963e-30 
1905 1 8.38295 1.52653 4.67042 0 1 1 5.28889e-30 
1202 1 8.14078 1.57277 3.65188 0 0 1 5.91623e-30 
4048 2 8.60195 3.04478 4.13733 0 1 0 7.82487e-30 
3677 2 9.32887 2.01202 4.62089 0 1 1 9.84885e-30 
2489 1 8.94132 2.29209 3.88997 0 0 0 1.72229e-29 
368 1 2.00704 2.5457 0.0494358 0 1 1 7.67683e-31 
2634 1 0.304776 3.93666 3.58978 1 0 1 1.08231e-29 
1079 1 0.716896 3.73064 4.62833 0 0 0 7.59704e-30 
136 1 1.47992 4.3318 4.12031 0 0 0 3.8011e-30 
853 1 2.32942 0.125001 4.36326 0 1 0 4.30232e-31 
3138 1 2.44105 4.00317 4.34591 1 0 1 8.75897e-31 
3615 2 2.16624 3.4863 3.64722 0 0 0 7.07623e-31 
3071 1 2.24768 4.31617 3.32533 1 0 0 5.62105e-31 
684 1 6.58544 1.2436 4.79083 0 0 0 7.87842e-30 
2998 1 4.42025 3.43255 3.94103 1 0 0 1.37473e-30 
694 1 0.198335 4.75916 0.176412 0 0 1 1.34489e-29 
49 1 4.84561 4.42925 3.93501 0 0 0 1.45183e-30 
1031 1 3.43329 3.3635 3.16211 0 0 0 1.47923e-30 
192 1 4.14059 4.40509 4.71276 0 0 0 1.77761e-30 
3201 1 3.68763 4.19029 3.76729 1 0 0 1.68912e-30 
4214 2 9.14893 0.177921 3.28711 1 0 1 7.3908e-30 
1195 1 5.37079 3.56358 3.42887 0 0 1 3.83144e-30 
2394 1 9.52654 0.138168 4.11328 0 1 0 8.64991e-30 
3732 2 5.27013 3.70156 4.28366 0 0 0 2.58752e-30 
3606 2 6.26416 4.47358 4.49755 0 0 0 3.61369e-30 
3781 2 5.28312 1.39902 4.49298 0 1 1 2.81038e-30 
2539 1 7.91336 4.56042 4.47703 0 0 0 5.57578e-30 
1716 1 7.0629 3.90257 4.54568 0 0 0 4.56155e-30 
1539 1 6.00929 3.58493 4.54863 0 0 -1 3.32543e-30 
3580 2 8.64108 2.51984 0.0492488 0 0 0 1.04487e-29 
3620 2 8.77792 4.44315 4.58821 0 0 0 5.46432e-30 
4319 2 1.12759 2.15122 0.0169369 0 0 1 3.47949e-30 
1192 1 2.71284 1.40095 4.8094 0 0 0 2.69597e-30 
204 1 1.21278 0.812132 5.98956 0 0 0 6.27485e-30 
231 1 0.313977 1.13521 5.7082 0 1 0 1.21589e-29 
2562 1 8.59691 3.40955 9.56911 0 0 -1 1.79797e-29 
547 1 1.85585 4.80891 5.97995 0 0 -1 2.90474e-30 
2989 1 2.01225 0.65336 5.18229 1 0 -1 2.77333e-30 
3250 1 2.01125 0.055838 6.11699 1 1 0 1.76195e-30 
820 1 2.95715 0.642189 5.86984 0 1 0 3.226e-30 
713 1 2.27728 1.20421 6.34988 0 0 1 7.21856e-31 
1677 1 9.44695 2.25147 9.54737 0 0 0 2.11985e-29 
1992 1 9.65404 0.930256 5.53108 0 0 -1 6.62662e-30 
1629 1 4.85211 1.54186 6.34833 0 0 0 8.87516e-30 
1851 1 3.93969 1.17659 5.97811 0 1 0 1.90997e-30 
4025 2 4.3548 0.594419 5.4783 0 1 1 1.85556e-30 
3813 2 3.56917 1.59047 5.14872 0 1 1 1.22307e-30 
81 1 4.57443 1.49297 5.13696 0 0 -1 1.31277e-29 
341 1 0.748942 0.0952582 8.52602 0 1 0 6.09768e-30 
2017 1 4.59578 0.418364 6.25712 0 0 0 2.95804e-30 
68 1 5.2541 0.775471 5.49647 0 0 0 1.08585e-29 
744 1 5.58595 0.243451 6.3784 0 1 0 1.02085e-29 
742 1 5.88912 1.21882 6.2933 0 1 0 3.50912e-30 
688 1 8.80426 4.52842 9.47231 0 0 0 5.77884e-30 
1593 1 6.25662 0.48282 5.46705 0 0 0 4.46249e-30 
1663 1 7.49483 0.868163 5.24852 0 0 1 1.56433e-29 
3755 2 7.09311 0.506872 6.01897 0 1 -1 1.04172e-29 
837 1 7.71235 1.11451 6.3496 0 1 0 4.9535e-30 
836 1 6.74352 1.38523 5.78036 0 1 0 4.59135e-30 
1262 1 8.59882 0.976553 5.62178 0 1 0 6.32588e-30 
586 1 3.65793 0.708605 4.95297 0 0 0 2.83953e-30 
1185 1 9.11744 0.70021 6.51534 0 0 0 3.44895e-29 
1633 1 6.5319 1.78173 9.43211 0 0 0 7.38567e-30 
34 1 0.951438 1.98692 5.6013 0 0 0 8.70695e-30 
1414 1 0.20389 2.19783 6.35873 0 1 1 1.18739e-29 
1237 1 0.745039 3.24022 5.65563 0 0 0 8.79124e-30 
2559 1 9.63877 4.2532 7.83921 0 0 -1 2.4077e-29 
1514 1 5.1494 0.913978 9.5065 0 0 -1 3.7908e-30 
164 1 1.6685 2.72865 5.43306 0 0 1 3.12302e-30 
553 1 1.93261 1.67412 5.48873 0 0 0 3.26876e-30 
4101 2 2.46114 2.41824 5.37258 1 0 -1 1.11972e-30 
1186 1 2.93455 1.78598 5.73819 0 0 0 1.28699e-30 
55 1 2.25057 2.39412 6.26858 0 0 0 6.07756e-31 
625 1 3.11685 2.91729 5.73988 0 0 1 1.46016e-30 
627 1 3.94278 2.16309 5.70883 0 0 0 1.35837e-30 
4095 2 4.06184 3.06278 5.50837 1 0 0 1.64443e-30 
3050 1 0.16989 3.28039 9.0476 1 0 0 1.42584e-29 
1060 1 5.71593 1.63603 5.22103 0 0 0 5.7236e-30 
2216 1 6.16131 2.38133 5.98408 0 0 0 5.34243e-30 
2053 1 5.13379 2.50714 5.65006 0 0 0 4.70812e-30 
1516 1 8.4821 1.64837 9.57024 0 0 -1 9.04793e-30 
3743 2 1.1337 0.485365 5.19195 0 0 0 6.7912e-30 
2590 1 7.12272 2.37833 6.16538 0 0 0 1.61542e-29 
573 1 6.96902 2.18062 5.09801 0 0 0 4.31467e-30 
995 1 7.92091 2.99232 5.54371 0 0 0 5.18487e-30 
1010 1 7.81532 1.93297 5.59661 0 0 0 1.05011e-29 
3723 2 6.59463 3.12958 6.22188 0 0 -2 3.71915e-30 
498 1 9.04165 1.86553 5.41565 0 0 -1 1.87073e-29 
3750 2 8.63454 2.5355 5.76428 0 0 0 1.09889e-29 
1866 1 8.62003 0.0607354 7.30496 0 1 0 1.61129e-29 
804 1 8.60143 1.68523 6.45272 0 1 0 7.31822e-30 
1700 1 8.21337 2.75108 6.50601 0 0 0 1.06922e-29 
3057 1 0.265556 2.34076 9.56602 1 0 -1 6.55586e-30 
4270 2 0.779486 4.08597 5.6466 1 1 -1 1.21349e-29 
3624 2 1.41126 2.11642 4.86923 0 0 0 4.91491e-30 
585 1 1.26696 4.02987 6.37134 0 0 0 1.09922e-29 
420 1 1.57493 3.98775 5.30817 0 1 0 3.48353e-30 
1187 1 2.57184 3.17225 4.94958 0 0 1 1.20565e-30 
577 1 2.04769 3.49309 6.04775 0 0 -1 9.9776e-31 
522 1 2.69899 4.15271 5.46397 0 0 0 1.02259e-30 
3776 2 3.09041 3.75816 6.14563 0 0 0 6.14557e-30 
1620 1 9.5963 3.28631 9.42416 0 0 0 2.13229e-29 
135 1 3.72958 3.87735 5.48174 0 0 0 1.58042e-30 
4162 2 9.47515 3.3314 5.20363 0 1 0 1.95418e-29 
3021 1 3.60783 4.4821 6.34413 1 0 -1 1.61913e-30 
1108 1 4.8535 3.51918 6.1051 0 0 -1 2.45822e-30 
173 1 5.88057 3.35653 5.77331 0 0 0 3.12188e-30 
4200 2 5.39555 3.1629 5.04346 1 0 0 9.86128e-30 
1119 1 5.52641 4.44838 5.93698 0 0 0 2.8394e-30 
451 1 1.45251 0.00286993 7.71675 0 1 0 1.11037e-30 
1123 1 6.39553 4.26417 5.3121 0 0 1 8.48386e-30 
3777 2 8.31981 0.264825 6.31972 0 1 0 2.31697e-29 
3744 2 7.14606 4.63531 6.03006 0 0 1 4.76137e-30 
1228 1 6.8507 3.20937 5.43402 0 0 0 7.50486e-30 
1111 1 7.5444 4.07718 5.48063 0 0 0 4.72205e-30 
2115 1 7.38503 3.44783 6.32806 0 0 1 8.16578e-30 
1080 1 6.5589 3.99519 6.42954 0 0 0 2.38769e-29 
2093 1 7.91255 4.57997 6.55474 0 0 0 4.14902e-30 
794 1 8.91419 3.37826 5.85455 0 1 0 6.43991e-30 
3673 2 8.28932 3.99928 5.94765 0 1 1 3.51425e-29 
1078 1 9.13147 4.33824 6.25564 0 0 0 6.52276e-30 
1040 1 9.2849 4.1948 5.26873 0 0 0 5.64761e-30 
900 1 8.38204 3.76104 5.00232 0 1 1 3.61613e-29 
1551 1 9.09859 3.90865 8.67992 0 0 -1 6.66686e-30 
610 1 5.21652 4.66071 7.66935 0 0 0 5.95701e-30 
2475 1 0.281015 0.341048 6.41319 1 1 0 1.44713e-29 
442 1 0.493986 0.522823 7.57862 0 1 0 1.00047e-29 
168 1 0.520251 1.27675 6.84125 0 0 0 9.82115e-30 
4190 2 1.10172 1.50404 7.40887 1 0 0 4.49895e-30 
434 1 0.441252 1.62266 7.90858 0 1 0 7.44441e-30 
9 1 1.14467 1.23319 4.88457 0 0 0 6.37406e-30 
3388 1 1.47004 0.779926 7.00157 1 1 0 4.36493e-30 
3524 2 2.01157 0.689703 7.77044 0 0 -1 1.14947e-30 
679 1 2.48929 0.430333 6.91342 0 0 0 1.31515e-30 
270 1 2.89658 1.03304 7.77629 0 1 0 2.15065e-30 
718 1 2.06216 1.55357 7.47966 0 0 0 7.45765e-31 
646 1 3.22478 1.33163 6.77212 0 0 0 1.60462e-30 
3828 2 3.06862 0.140375 7.52623 0 0 0 1.63353e-30 
1726 1 4.15113 1.00952 7.0879 0 0 0 1.6675e-30 
3212 1 3.56407 0.233051 6.6555 1 1 -1 1.17745e-30 
116 1 3.82037 0.384497 8.00199 0 0 0 9.57844e-30 
1016 1 4.9342 0.781231 7.75504 0 0 0 2.25148e-30 
1807 1 5.79702 0.20351 7.4196 0 1 0 1.05358e-29 
3592 2 5.19316 0.803051 6.82988 0 0 -1 2.54058e-30 
1264 1 5.80966 1.25272 7.41751 0 1 -1 2.6254e-30 
74 1 4.79486 1.73474 7.39244 0 0 -1 2.53944e-30 
1121 1 6.54409 0.502323 6.61457 0 0 0 7.35827e-30 
1013 1 6.69569 0.717178 7.63685 0 0 0 9.94446e-30 
3899 2 7.41197 0.982881 7.13768 0 1 0 5.60232e-30 
1900 1 7.73161 0.321094 7.90754 0 1 0 6.39327e-30 
1166 1 7.35624 1.50789 7.94384 0 0 0 4.49067e-30 
599 1 6.66714 1.52829 6.84736 0 0 -1 4.41031e-30 
1986 1 7.6602 0.225285 6.83506 0 0 0 6.51996e-30 
1238 1 5.32457 4.35656 4.8688 0 0 0 4.66024e-30 
545 1 8.23332 1.05845 7.20945 0 0 0 7.23098e-30 
1621 1 9.15913 1.50139 7.31108 0 0 0 8.91684e-30 
1452 1 8.83721 0.78515 8.04852 0 1 0 1.4278e-29 
47 1 1.20621 2.78564 6.42718 0 0 0 4.3775e-30 
4199 2 0.33347 3.02732 6.4455 1 0 0 1.78904e-29 
3065 1 1.48051 1.82093 6.5756 1 0 0 3.3671e-30 
3041 1 0.802183 2.38286 7.31691 1 0 0 5.12962e-30 
1603 1 7.71838 3.95515 9.48807 0 0 0 4.82962e-30 
3139 1 1.90196 2.65322 7.36155 1 0 0 1.05838e-30 
32 1 2.82207 2.26229 7.39811 0 0 0 2.03274e-30 
798 1 2.94424 3.25243 6.82255 0 1 0 1.39421e-30 
4194 2 4.10165 1.84265 6.63748 1 0 0 2.31598e-30 
984 1 3.42588 2.33515 6.57336 0 1 0 2.85124e-30 
494 1 4.54175 2.58704 6.53855 0 0 0 2.0502e-30 
3435 1 3.784 1.89583 7.50117 1 1 0 1.94801e-30 
17 1 3.93448 2.91908 7.3992 0 0 -1 1.61521e-30 
3835 2 5.47744 2.98057 6.4277 0 0 -1 5.74741e-30 
1511 1 5.62447 2.14352 6.83324 0 0 0 3.42132e-30 
636 1 5.17898 2.88206 7.4881 0 0 0 4.79159e-30 
208 1 6.12334 3.10358 7.05749 0 0 1 3.3472e-30 
3984 2 6.01181 2.79085 7.87614 0 0 0 5.27848e-30 
1360 1 6.59884 2.21403 7.63399 0 1 0 6.93589e-30 
3605 2 6.51291 2.37532 6.79215 0 1 0 1.54597e-29 
1143 1 7.30541 2.85489 7.21449 0 0 0 6.79851e-30 
1558 1 7.66749 1.93932 7.02439 0 0 0 5.4044e-30 
1523 1 8.29518 1.77509 7.95274 0 0 0 3.61547e-29 
3567 2 8.50685 2.13095 7.20496 0 1 0 6.98144e-30 
2136 1 9.19781 2.51364 6.75329 0 0 0 8.44117e-30 
1725 1 8.30717 2.86763 7.5578 0 0 0 5.76962e-30 
1955 1 9.23283 2.38765 7.83145 0 1 0 1.30795e-29 
216 1 0.584436 4.54469 7.10776 0 0 0 1.2696e-29 
3349 1 0.800086 3.42825 7.13791 1 0 0 1.17341e-29 
4166 2 0.29791 4.6711 7.94785 1 1 0 1.43372e-29 
687 1 1.09825 4.25623 8.06797 0 0 0 8.70384e-30 
1018 1 2.6604 3.30033 7.81159 0 0 -1 1.68376e-30 
2641 1 2.61399 4.25005 6.62379 1 0 1 1.71042e-30 
1090 1 1.85555 3.71256 7.2096 0 0 0 2.11996e-30 
1246 1 2.53132 4.42017 7.63493 0 0 0 8.75438e-31 
711 1 3.89428 3.41411 6.4361 0 0 1 2.1023e-30 
551 1 4.55771 4.32236 6.7524 0 0 0 3.55703e-30 
3571 2 4.64628 3.39208 6.91057 0 1 0 2.82202e-30 
638 1 3.41941 3.96654 7.35353 0 0 0 2.47074e-30 
1095 1 4.52197 3.9 7.67358 0 0 0 6.56691e-30 
3145 1 5.55522 3.8662 6.82238 1 0 0 3.73735e-30 
655 1 6.36426 4.23288 7.50826 0 0 0 5.20493e-30 
797 1 4.0818 0.979558 9.46099 0 1 -1 8.85463e-30 
3586 2 8.25211 4.25642 8.83828 0 0 -1 5.92754e-30 
1059 1 7.33964 4.00046 7.3072 0 0 0 3.33723e-30 
3634 2 7.68957 3.40101 7.91274 0 0 0 1.59981e-29 
1181 1 6.69755 3.31374 7.9862 0 0 0 6.77165e-30 
3614 2 9.42159 3.35357 6.55923 0 0 0 1.17201e-29 
1675 1 9.33054 3.40947 7.3901 0 0 0 9.23171e-30 
2215 1 8.40456 3.89787 7.76591 0 0 0 4.87444e-30 
506 1 8.48087 3.70641 6.77444 0 0 -1 6.68157e-30 
607 1 8.85663 4.69018 7.16856 0 0 1 3.91983e-30 
3018 1 1.2776 0.947679 8.24155 1 0 0 1.43586e-30 
88 1 0.462542 0.628237 9.36662 0 0 -1 7.31935e-30 
310 1 1.51937 0.72311 9.21966 0 1 -1 8.33031e-31 
3014 1 0.742978 1.64745 8.9244 1 0 -1 6.54435e-30 
1494 1 8.79868 2.78084 4.92569 0 0 0 1.02344e-29 
1197 1 1.7914 1.69425 9.06742 0 0 0 2.17596e-30 
3988 2 1.68914 0.18563 8.5341 0 1 -1 1.1864e-30 
3770 2 2.31318 0.664953 9.45924 0 1 0 7.89606e-31 
209 1 2.31791 0.837304 8.55402 0 0 0 1.12467e-30 
3757 2 3.01457 0.264363 8.54941 0 1 0 1.19797e-30 
741 1 2.70074 1.49509 9.42625 0 1 -1 2.59507e-30 
700 1 7.02964 3.39074 8.96553 0 0 0 4.15103e-30 
879 1 4.55889 0.449233 8.78681 0 1 0 2.90038e-30 
926 1 4.24336 1.35632 8.29966 0 1 0 2.0578e-30 
1747 1 3.30277 1.03447 8.75024 0 1 -1 1.40782e-30 
3897 2 9.21961 0.35685 4.98653 0 1 0 2.32924e-29 
3467 2 6.09011 0.67361 8.21745 0 1 -1 3.41567e-30 
3874 2 6.04676 1.14249 9.33602 0 1 0 3.86958e-30 
1577 1 5.98742 0.338321 9.057 0 0 -1 6.02729e-30 
1170 1 5.37525 1.21549 8.57381 0 0 0 7.11837e-30 
801 1 6.37709 1.48815 8.45626 0 1 0 7.91398e-30 
2199 1 8.16043 3.40591 8.65794 0 0 0 5.21656e-30 
2384 1 7.09903 0.71614 8.62021 0 1 0 6.01631e-30 
3900 2 5.08459 2.22797 4.84743 0 1 -1 1.95478e-30 
592 1 6.2577 2.9575 9.56519 0 0 -1 1.55236e-29 
3712 2 7.02708 4.68746 7.77319 0 0 0 6.15767e-30 
930 1 8.09646 1.0439 8.71497 0 1 0 1.66696e-29 
1000 1 8.96961 0.606197 9.16161 0 0 0 7.3743e-30 
2988 1 1.31386 3.16439 8.09139 1 0 0 2.08439e-30 
1174 1 8.29823 4.81837 5.48239 0 0 1 4.25147e-30 
50 1 1.43119 2.03551 8.15689 0 0 -1 1.90932e-30 
2702 1 0.372693 2.57166 8.24192 1 0 0 4.97498e-30 
3155 1 1.0689 2.68015 9.0431 1 0 0 4.59495e-30 
1256 1 4.58504 4.6794 5.67882 0 0 0 6.44465e-30 
515 1 2.63749 1.81237 8.31302 0 0 0 1.47264e-30 
651 1 2.1056 2.71561 8.61394 0 0 -1 9.3708e-31 
598 1 1.64151 4.75332 7.04969 0 0 -1 9.09683e-30 
3636 2 3.52385 1.83656 8.35019 0 0 -1 1.83259e-30 
1139 1 4.46482 2.33821 8.21267 0 0 0 5.12041e-30 
575 1 3.2641 2.68505 8.52035 0 0 -1 1.66779e-30 
525 1 3.9048 2.04063 9.11688 0 0 0 4.31859e-30 
1099 1 4.43664 2.92942 9.0367 0 0 -1 2.38344e-29 
2173 1 4.98624 1.98719 9.12767 0 0 -1 4.99596e-30 
589 1 5.53557 2.10785 8.05642 0 0 -1 4.36621e-30 
3572 2 5.83677 2.36527 9.18361 0 1 0 3.69159e-30 
1279 1 5.41409 2.93283 8.70688 0 1 0 3.95202e-30 
3960 2 7.08193 4.6183 9.2705 0 0 -1 8.83287e-30 
83 1 5.48709 4.74161 8.78373 0 0 -1 2.79605e-30 
1094 1 6.52104 2.52999 8.6098 0 0 -1 9.53045e-30 
867 1 7.42075 1.7382 8.99869 0 1 0 4.98405e-30 
1325 1 7.52642 2.56728 8.28342 0 1 -1 4.73397e-30 
3921 2 7.06141 2.62418 9.32754 0 1 0 1.57306e-29 
683 1 7.91314 2.60936 9.30139 0 0 0 5.78026e-30 
4156 2 2.2238 4.14857 9.49997 0 0 -1 8.29619e-31 
1470 1 9.17661 1.60592 8.58616 0 1 0 6.63223e-30 
588 1 6.02953 2.60077 4.97071 0 0 0 6.82886e-30 
4216 2 8.94724 3.26547 8.15628 0 0 -1 1.30232e-29 
3542 2 8.34685 2.03408 8.7727 0 1 -1 7.23422e-30 
1883 1 8.93241 2.65554 8.78373 0 1 0 7.43472e-30 
165 1 0.342829 3.59613 8.08702 0 0 0 8.79224e-30 
4192 2 0.962909 3.69082 8.83038 1 0 0 8.9768e-30 
509 1 1.51447 4.42346 9.04721 0 0 -1 7.49869e-30 
2492 1 0.480863 4.38767 8.8358 1 0 -1 1.42637e-29 
2490 1 2.05998 3.87801 8.47058 1 0 -1 5.93348e-31 
3914 2 3.0261 3.86803 8.31447 0 1 0 6.55427e-30 
692 1 2.78563 3.52443 9.07539 0 0 0 2.9123e-30 
950 1 2.69617 4.58271 8.84439 0 0 0 2.02209e-30 
3086 1 1.65707 3.47909 9.40503 1 0 0 9.06306e-31 
1639 1 9.64248 1.66914 6.2504 0 0 0 7.52838e-30 
79 1 3.9114 4.35263 9.13405 0 0 -1 3.1471e-30 
72 1 3.8416 3.53067 8.30619 0 0 -1 1.92412e-30 
580 1 4.76973 3.98884 8.64617 0 0 -1 2.17479e-30 
628 1 3.64054 4.58034 8.13778 0 0 0 2.92762e-30 
3477 2 4.66399 3.22952 8.15824 0 0 -2 2.9948e-30 
3464 2 4.75545 4.61676 9.29614 0 0 -1 3.58182e-30 
1149 1 5.59785 3.67937 8.04946 0 0 0 9.10517e-30 
544 1 4.64066 3.55709 4.96701 0 0 0 2.15586e-30 
3711 2 6.15923 3.39722 8.79999 0 0 -1 4.08602e-30 
1204 1 5.62804 3.84823 9.26874 0 0 0 1.45789e-29 
1135 1 6.45083 4.25342 8.62414 0 0 0 6.68445e-30 
708 1 7.5062 4.2285 8.40051 0 0 0 3.32513e-30 
3030 1 0.227487 3.93653 6.26476 1 0 0 2.02801e-29 
3873 2 2.89862 0.42692 4.95043 0 1 0 1.20219e-30 
37 1 3.01414 2.57417 9.64301 0 0 -1 5.74888e-30 
1348 1 3.27038 2.33686 4.84299 0 1 0 1.36363e-30 
2273 1 6.84472 0.724255 9.62748 0 1 -1 1.98538e-29 
213 1 0.990982 5.6142 0.482638 0 0 1 6.67469e-30 
3293 1 0.482492 6.014 1.36952 1 1 0 1.02819e-29 
769 1 1.50148 6.39144 1.48629 0 0 0 4.53917e-30 
4074 2 1.83013 5.30098 1.13918 1 -1 1 1.50067e-30 
2193 1 9.64395 8.89267 4.647 0 0 0 1.08104e-29 
3643 2 8.39534 9.10913 4.51114 0 0 0 5.00554e-29 
3128 1 2.02171 5.99259 0.735648 1 0 1 1.35465e-30 
657 1 3.05761 6.16328 1.04411 0 0 1 1.0308e-30 
181 1 2.78013 5.15868 0.991953 0 0 0 1.34252e-30 
618 1 3.76534 4.88863 2.79694 0 0 1 1.76847e-30 
973 1 4.00244 5.42263 1.01766 0 1 1 1.28907e-30 
319 1 0.804411 7.59261 0.00945025 0 1 0 1.35325e-29 
3068 1 0.712972 5.01061 3.76031 1 0 0 8.21263e-30 
3494 2 0.223411 5.41577 3.18204 0 0 1 8.69116e-30 
1239 1 4.65885 6.45396 0.0889373 0 0 1 2.01566e-30 
4275 2 3.58597 6.14477 1.68895 1 0 0 1.46069e-30 
1201 1 5.97226 5.52487 0.589883 0 0 1 1.6036e-29 
1586 1 5.8431 6.121 1.44375 0 0 0 2.82753e-30 
802 1 1.73875 9.57727 1.1211 0 0 0 1.53948e-30 
499 1 4.94533 5.90494 1.00825 0 0 0 3.89765e-30 
38 1 5.66282 6.50622 0.400354 0 0 0 2.74882e-30 
3904 2 7.42345 5.69594 0.84122 0 1 0 9.83217e-30 
1150 1 6.81679 5.29122 1.39292 0 0 1 2.87577e-30 
97 1 6.65803 6.19323 0.786808 0 0 0 5.40775e-30 
1480 1 8.07847 4.89313 1.29838 0 0 1 6.3838e-30 
658 1 7.62156 5.96228 1.61431 0 0 0 2.38391e-29 
1720 1 8.21198 5.45192 0.40693 0 0 1 4.01102e-30 
1370 1 9.25918 5.26999 0.498286 0 0 1 1.27594e-29 
2694 1 8.64486 6.00136 1.17036 0 0 0 5.78224e-30 
3890 2 9.03034 5.21668 1.28017 0 1 0 1.07783e-29 
579 1 5.56262 4.94351 1.54663 0 0 0 1.67642e-29 
2187 1 0.196723 6.56514 0.504452 1 0 1 1.04993e-29 
3132 1 1.27017 6.63067 0.446058 1 0 1 5.98177e-30 
3327 1 0.686276 7.07563 1.37106 1 1 1 8.98452e-30 
1654 1 1.49234 7.59182 0.878156 0 0 1 3.24894e-30 
3535 2 1.75893 9.37479 3.49791 0 0 0 2.11255e-30 
3983 2 2.36998 6.32834 1.51046 0 0 0 5.59973e-31 
234 1 2.44925 7.05696 0.87865 0 0 0 3.01898e-31 
4218 2 3.1754 7.65062 0.827453 1 0 1 6.27057e-31 
919 1 3.30822 7.08412 1.52672 0 0 1 9.87923e-31 
608 1 4.113 6.57999 1.14975 0 0 1 1.49275e-30 
898 1 3.5187 7.0687 0.34668 0 0 1 5.27272e-31 
327 1 4.0324 7.65475 1.05528 0 0 0 8.80364e-31 
1242 1 0.24486 7.56769 2.31793 0 0 1 8.11678e-30 
1069 1 6.35877 7.29819 0.79882 0 0 0 3.20523e-30 
3725 2 5.69876 7.95868 1.31083 0 0 0 2.25099e-30 
2968 1 5.01265 7.16751 0.947162 1 0 0 2.16782e-30 
1001 1 5.51114 7.91795 0.446571 0 0 0 2.40104e-30 
491 1 4.65407 9.56767 3.89723 0 0 0 1.99955e-30 
3554 2 4.80299 7.98922 0.932826 0 0 0 1.91473e-30 
771 1 1.88696 4.92481 0.316767 0 1 0 1.58115e-30 
1041 1 7.83983 6.52455 0.763057 0 0 0 4.90626e-30 
3810 2 7.12124 6.91078 1.02115 0 0 1 3.46749e-30 
1926 1 7.34969 7.81625 0.682863 0 0 1 6.8127e-30 
3710 2 7.87561 8.09321 1.38918 0 0 1 7.49333e-30 
411 1 1.24119 9.50516 2.71758 0 0 1 3.97446e-30 
514 1 9.08098 6.87109 0.575504 0 0 0 3.55588e-29 
1729 1 8.46637 7.68758 0.811025 0 0 1 5.53454e-30 
4310 2 8.5049 6.87201 1.25775 0 1 -1 5.47896e-30 
1477 1 9.56912 7.80975 1.02058 0 0 1 1.82676e-29 
444 1 4.59686 9.6417 0.844074 0 0 1 1.97172e-30 
2625 1 1.14482 8.6552 0.598377 1 0 1 3.90275e-30 
3661 2 1.17064 9.55092 0.426726 0 0 -1 4.01246e-30 
3001 1 4.44048 7.47602 0.131513 1 0 0 1.49498e-30 
1522 1 3.60116 6.04474 0.133632 0 0 0 1.58474e-30 
648 1 1.82348 8.53525 1.40397 0 0 1 1.2862e-30 
109 1 2.34717 8.15112 0.622348 0 0 0 3.36866e-31 
2990 1 3.00843 8.94647 0.298568 1 0 0 1.11582e-30 
3609 2 2.54471 8.91999 1.02047 0 0 1 5.87454e-31 
66 1 1.981 9.11061 0.175219 0 0 0 3.24231e-30 
686 1 7.10745 6.89291 0.0338135 0 0 1 9.277e-30 