ITEM: TIMESTEP
6600
ITEM: NUMBER OF ATOMS
4320
ITEM: BOX BOUNDS xy xz yz pp pp pp 
0 19.5031 0.1931
0 19.31 0
0 9.655 0
ITEM: ATOMS id type x y z ix iy iz D2 
1232 1 0.251272 0.656502 1.20851 0 0 0 64.7828 
3427 1 1.16273 0.387946 0.636672 1 1 1 87.8026 
1106 1 0.61162 1.42556 0.297408 0 0 0 79.761 
191 1 1.22641 1.00121 1.40424 0 0 0 58.8314 
1189 1 1.91773 1.109 0.42005 0 0 0 88.2359 
3040 1 2.77484 0.352792 0.98393 1 0 0 69.6592 
3774 2 2.88069 1.09608 0.604539 0 1 -1 72.1399 
3820 2 8.32735 0.11685 0.0184131 0 1 1 81.3422 
772 1 4.36295 0.0957899 0.194396 0 1 0 94.6541 
1071 1 3.7857 0.677672 0.946492 0 0 0 5249.23 
80 1 3.30904 1.50983 1.49058 0 0 0 49.489 
3258 1 0.173544 0.235019 3.66782 1 1 0 94.8694 
870 1 5.81064 0.688657 0.406986 0 1 1 19.9897 
3953 2 5.95353 0.629302 1.37953 1 0 -1 196.807 
1224 1 6.26759 1.41738 0.937867 0 0 1 77.8279 
766 1 4.8324 0.698234 0.891783 0 1 0 76.2754 
1627 1 6.51759 4.33488 3.72692 0 0 1 29.1882 
572 1 6.65109 0.380408 0.940964 0 0 0 62.2666 
3848 2 7.14026 1.17479 0.821005 0 0 1 32.8638 
1215 1 7.68497 0.610272 1.08176 0 0 1 1667.42 
1300 1 6.98843 1.16914 1.68543 0 1 0 213.609 
994 1 8.71886 3.36308 3.40003 0 0 0 75.9522 
1330 1 8.64482 0.904551 0.826863 0 1 0 77.8706 
1513 1 9.68743 4.64712 4.39634 0 0 0 170.664 
1074 1 9.56224 0.85859 1.17392 0 0 0 986.239 
2055 1 7.88767 1.66581 1.25449 0 0 0 205.075 
691 1 4.97342 2.8852 0.024357 0 0 1 86.5059 
3019 1 0.381358 1.74915 1.34593 1 0 0 50.0891 
3546 2 0.596354 2.26972 0.684817 0 1 0 170.853 
2959 1 1.01638 2.95404 0.419272 1 0 0 64.1916 
538 1 1.40674 1.94815 0.838512 0 0 0 63.1958 
606 1 0.914852 2.66248 1.45359 0 0 1 769.198 
129 1 0.70807 2.62879 4.61741 0 0 0 99.1209 
3495 2 5.235 0.0962719 0.353216 0 0 1 100.066 
1103 1 8.40619 0.119238 2.81544 0 0 0 126.753 
541 1 2.42486 1.93503 0.77376 0 0 0 117.663 
429 1 1.85922 2.94474 1.00886 0 1 1 42.5484 
1392 1 3.47842 3.50654 0.127044 0 1 1 52.2577 
1254 1 3.1022 2.73356 0.891226 0 0 1 234.482 
1932 1 4.46221 1.57451 0.64306 0 1 1 61.9401 
719 1 3.4064 1.74007 0.468777 0 0 0 9139.39 
698 1 4.04529 2.36535 1.30687 0 0 1 122.04 
611 1 3.99762 2.60284 0.308472 0 0 1 58.3853 
3483 2 4.93524 2.38032 0.757658 0 0 0 65.07 
4 1 5.14349 1.86401 1.43087 0 0 0 89.5514 
2120 1 5.49525 1.80615 0.358777 0 0 1 57.3888 
1229 1 5.85533 2.58449 0.93612 0 0 0 51.8059 
703 1 4.8999 2.97867 1.40328 0 0 0 117.87 
3928 2 6.03004 2.05635 1.5887 0 1 0 42.3027 
3772 2 8.03889 4.7121 0.4149 0 1 1 55.2175 
3490 2 6.58005 2.38692 0.511631 0 0 1 86.3456 
993 1 7.24022 1.90024 0.385601 0 0 0 896.65 
1247 1 6.91997 2.35517 1.36906 0 0 1 43.1904 
1863 1 7.12452 3.04482 0.422326 0 1 0 254.84 
1565 1 9.36732 3.55569 4.24409 0 0 0 57.7903 
1573 1 7.99816 2.65346 0.871021 0 0 0 118.285 
1339 1 8.96101 1.97561 0.800577 0 1 0 912.328 
1946 1 8.89811 3.07388 0.78303 0 1 0 104.961 
4090 2 8.27318 3.2445 1.45041 0 0 0 79.8982 
2171 1 8.76331 2.49618 1.70011 0 0 0 133.52 
249 1 2.05992 0.0557405 0.277176 0 1 0 68.75 
1193 1 0.786252 3.60876 1.19578 0 0 0 546.1 
217 1 0.87462 4.68287 0.857403 0 0 1 58.994 
3157 1 1.61816 3.95599 0.580118 1 0 1 48.3694 
146 1 2.43286 3.41993 0.258374 0 0 0 57.1481 
3186 1 2.99745 3.94067 1.08699 1 0 1 207.001 
1196 1 2.1221 4.5151 1.39651 0 0 1 62.7851 
2985 1 2.80735 4.43402 0.102024 1 0 0 1074.95 
825 1 7.89081 3.59378 4.07113 0 1 0 1571.18 
3620 2 8.81465 4.50814 4.76014 0 0 0 97.8441 
11 1 3.87464 3.43646 1.18233 0 0 0 53.2224 
255 1 3.94158 4.3996 0.582293 0 0 0 48.74 
618 1 3.6308 4.74771 2.73142 0 0 1 59.5772 
1223 1 4.75533 4.05668 1.09533 0 0 1 56.4941 
4147 2 4.54044 3.22629 0.671174 1 1 0 51.2547 
616 1 5.52575 3.5233 0.602707 0 0 1 43.6775 
1176 1 6.1037 4.48497 0.908943 0 0 1 577.629 
30 1 5.20967 4.69466 0.390738 0 0 0 47.33 
2004 1 6.42673 3.52548 1.13669 0 0 0 115.553 
3794 2 7.11799 3.90352 0.704243 0 0 0 106.132 
462 1 7.11755 4.28001 1.46103 0 1 0 63.9686 
1034 1 7.42715 3.23213 1.62792 0 0 0 79.5866 
1382 1 6.52142 3.98715 0.113695 0 0 1 171.559 
3594 2 0.155423 4.76012 2.0072 0 0 1 319.082 
1501 1 7.91786 3.73527 0.814818 0 0 0 869.71 
1220 1 8.72132 4.40189 0.953379 0 0 1 143.286 
4018 2 8.96293 3.81291 0.408969 0 0 -1 63.5217 
3980 2 0.555149 1.16893 1.92834 1 0 1 85.9044 
3104 1 0.531969 0.941125 2.8098 1 0 0 61.2905 
3013 1 0.765492 0.25673 2.00196 1 0 0 47.1319 
539 1 9.65514 3.81842 0.984738 0 0 0 103.589 
256 1 2.23727 1.179 1.4512 0 1 0 58.4262 
3190 1 1.63171 0.720889 2.34976 1 0 1 141.743 
3217 1 3.13517 0.948389 2.44251 1 1 0 37.5206 
340 1 2.61533 0.160336 2.17601 0 1 0 116.437 
3573 2 3.27948 0.547224 1.6333 0 1 3 35.1641 
3164 1 3.1378 0.366722 3.23569 1 0 1 78.9217 
661 1 4.33888 1.23475 1.69055 0 0 1 57.8859 
914 1 3.96036 0.218902 2.10002 0 1 1 71.4573 
486 1 4.06776 0.922243 2.98652 0 0 0 45.3925 
183 1 5.00141 1.34391 2.50458 0 0 0 354.357 
299 1 5.20723 0.50488 1.80995 0 1 0 85.86 
1770 1 5.89443 1.25691 1.93994 0 1 0 68.8597 
1033 1 5.71776 0.493752 2.78408 0 0 0 25.5223 
3683 2 5.83375 1.28727 2.82089 0 1 0 7.76891 
4080 2 4.74932 0.49375 2.64244 1 0 0 49.7136 
1971 1 6.53535 0.166811 1.92446 0 1 0 57.0881 
2016 1 6.66416 1.06987 2.70494 0 0 0 126.439 
806 1 7.59156 0.323128 2.10994 0 1 0 185.122 
1462 1 7.65268 0.781029 3.035 0 1 1 90.2577 
1423 1 6.82748 0.139157 3.05883 0 1 1 216.463 
1571 1 7.85174 1.3172 2.20776 0 0 0 95.622 
716 1 2.64831 4.73345 2.36499 0 0 1 48.8167 
1957 1 9.53795 1.98302 3.09381 0 1 1 491.278 
635 1 8.59979 0.407223 1.75301 0 0 1 53.872 
890 1 8.78973 1.19664 2.79284 0 1 1 61.5265 
1830 1 8.77036 1.46021 1.72047 0 1 0 77.0093 
4103 2 4.32366 0.00349841 4.75589 0 0 0 30.4435 
4133 2 1.26031 4.7724 3.37024 1 1 0 85.6868 
2949 1 1.27022 1.70735 2.11488 1 1 1 56.8692 
4245 2 0.439879 2.27504 2.19726 1 0 0 59.0606 
315 1 0.680397 1.97441 3.00674 0 1 0 92.3401 
2495 1 0.888506 2.8813 2.58985 1 0 0 78.1043 
29 1 2.35124 1.58346 2.48381 0 0 0 109.882 
4302 2 1.64059 2.04298 2.83839 0 1 -1 70.5037 
4225 2 1.80611 2.0503 1.56938 1 0 1 5650.77 
1036 1 2.73506 2.24788 1.69653 0 0 0 3142.59 
555 1 1.83532 2.68558 2.18015 0 0 0 102.805 
42 1 2.75743 2.57048 2.69504 0 0 0 77.9889 
1115 1 2.60322 3.26006 1.79014 0 0 0 50.8229 
1047 1 4.60128 2.41977 2.25937 0 0 0 55.0426 
3124 1 3.74073 1.82059 2.37112 1 0 1 33.1532 
505 1 3.56402 2.84061 2.10554 0 0 0 56.9322 
3647 2 3.57686 2.39562 2.94874 0 1 1 38.9978 
677 1 4.29904 2.99984 3.09314 0 0 1 108.845 
1435 1 5.58176 2.1775 2.40001 0 1 0 77.0717 
3612 2 6.12773 2.73196 2.76279 0 0 1 99.5415 
57 1 6.05644 3.0081 1.90814 0 0 0 638.386 
1068 1 5.30997 3.20952 2.5669 0 0 0 56.458 
1387 1 6.29466 1.97291 3.19243 0 1 0 134.482 
1198 1 6.54739 2.01094 2.21802 0 0 1 97.141 
1214 1 7.3535 1.93875 2.89081 0 0 0 80.281 
1580 1 6.93329 2.89218 2.52583 0 0 0 277.861 
1003 1 7.73409 2.30769 1.98419 0 0 0 6265.42 
1295 1 1.03214 0.0972962 3.03075 0 1 0 40.9702 
3676 2 9.4791 2.07052 2.17609 0 0 -1 37.483 
1485 1 8.55496 2.23126 2.80992 0 0 -1 63.1022 
2307 1 9.24477 3.08035 2.54352 0 1 0 188.691 
694 1 0.0705614 4.79359 0.166278 0 0 1 26.6068 
4209 2 1.26734 4.32695 1.63055 1 0 1 51.9437 
587 1 0.613688 4.03836 2.15279 0 0 0 47.2313 
1433 1 1.33646 3.85569 3.09477 0 0 1 117.212 
593 1 1.58968 4.72228 2.34441 0 0 0 64.9859 
1240 1 1.51451 3.5849 1.92257 0 0 1 31.7982 
4197 2 3.01072 4.21249 2.97631 1 0 0 52.4528 
3540 2 2.21945 4.04826 2.12765 0 0 0 62.5891 
2595 1 2.39965 3.58003 2.80513 1 0 0 66.4682 
4171 2 0.220823 3.44317 0.242498 1 0 0 113.831 
695 1 3.25698 3.88334 2.18698 0 0 1 71.2032 
2982 1 4.36013 3.6429 2.10069 1 0 0 3359.53 
563 1 4.3486 4.11412 3.126 0 0 0 109.693 
1442 1 3.91803 4.63143 1.63842 0 1 1 38.6783 
1100 1 6.22797 4.64536 2.15018 0 0 0 147.773 
684 1 6.60367 1.3642 4.7495 0 0 0 26.4453 
13 1 4.77622 4.62073 2.23395 0 0 0 29.6208 
997 1 5.55 3.9517 1.79989 0 0 0 79.8742 
1420 1 6.27242 3.74377 2.81101 0 1 1 107.877 
3478 2 6.7887 4.51653 2.91124 0 0 0 1817.56 
4017 2 6.66536 3.71079 2.00744 0 1 0 189.949 
887 1 7.28715 3.92122 2.55119 0 1 1 338.971 
3951 2 7.94438 3.73756 3.16225 0 0 1 48.83 
1277 1 8.15886 3.17632 2.46132 0 1 0 47.6516 
649 1 8.1124 4.16021 1.85089 0 0 1 57.4002 
709 1 8.99324 3.59429 1.70478 0 0 0 150.253 
1009 1 8.1973 4.50519 2.7911 0 0 0 82.744 
3742 2 8.76579 3.78199 2.51341 0 0 1 146.944 
2638 1 8.99575 4.56989 2.13877 0 0 1 344.543 
1486 1 9.46803 0.299946 2.39538 0 0 0 52.2338 
351 1 1.90243 0.0150397 1.41765 0 1 0 82.359 
1066 1 1.54698 1.30739 3.17155 0 0 0 51.9408 
612 1 0.624574 1.21519 3.83136 0 0 0 142.754 
214 1 1.24329 0.37042 4.06133 0 0 0 95.1973 
1210 1 8.75143 4.3599 3.80329 0 0 1 37.9265 
14 1 2.07619 0.470877 3.30147 0 0 0 59.0548 
4131 2 2.61432 1.1432 3.21755 0 1 0 67.341 
2699 1 9.165 0.0573667 0.414642 0 0 0 112.595 
2954 1 1.95654 1.15109 4.17455 1 0 0 59.3784 
758 1 3.01007 1.04997 4.08398 0 1 0 237.867 
1460 1 4.72111 0.824092 4.55128 0 1 0 40.5599 
115 1 3.92904 0.398676 3.91745 0 0 0 61.2175 
3476 2 4.51569 1.19482 3.77184 0 0 0 70.8424 
3330 1 3.90957 1.67937 4.25519 1 1 0 99.9168 
991 1 4.96894 0.443339 3.54005 0 0 0 103.517 
1910 1 9.44651 4.09955 2.9939 0 1 1 67.8873 
704 1 5.46822 1.36457 3.62259 0 0 0 50.8153 
631 1 5.72888 0.803133 4.42822 0 0 1 665.459 
659 1 6.42789 1.02615 3.72069 0 0 1 179.009 
3653 2 7.16453 1.2887 3.41496 0 1 -1 1689.64 
1536 1 7.43495 0.892213 4.13528 0 0 0 61.3715 
1109 1 6.65238 0.267257 4.39751 0 0 -1 92.5696 
3801 2 7.47352 0.235552 4.6103 0 1 1 85.8628 
41 1 3.55582 3.45272 4.53647 0 0 0 194.544 
1127 1 5.65339 4.67703 3.01726 0 0 1 65.134 
1623 1 8.2619 0.413822 4.68662 0 0 0 89.1274 
1271 1 8.52071 0.750374 3.75381 0 1 0 66.9733 
2133 1 9.24715 1.0292 4.5686 0 0 0 121.412 
4039 2 8.97993 1.52404 3.63729 0 1 1 77.1945 
2140 1 7.08138 3.4857 3.49363 0 0 1 31.7739 
1147 1 1.27362 2.06074 3.9566 0 0 1 47.2332 
2579 1 0.710805 2.96212 3.64995 1 0 0 107.082 
2273 1 6.74571 1.02206 0.00328279 0 1 0 82.4384 
3012 1 1.77378 2.77074 3.33425 1 0 0 42.5346 
1107 1 1.64916 3.18022 4.28545 0 0 0 47.1121 
8 1 2.31341 1.91094 3.55191 0 0 0 52.3236 
3062 1 2.24487 2.2482 4.56939 1 0 0 321.846 
4064 2 3.04969 1.94766 4.13247 0 1 1 824.43 
1844 1 2.69388 3.09823 3.90481 0 0 1 129.523 
2056 1 7.54366 4.41513 3.52221 0 0 0 59.5494 
1180 1 3.32966 1.59632 3.31055 0 0 0 106.985 
26 1 4.32646 1.94148 3.32502 0 0 0 388.232 
3734 2 4.60135 2.69346 3.84839 1 0 0 43.5185 
2554 1 3.63281 2.63827 3.853 1 0 0 954.634 
89 1 4.86998 1.94258 4.22154 0 0 0 72.1602 
1618 1 5.28746 2.43727 3.35873 0 0 1 151.622 
69 1 5.93532 2.11687 4.23459 0 0 0 8698.04 
1528 1 5.34402 2.99259 4.25422 0 0 0 58.5936 
1102 1 6.14294 3.09906 3.64669 0 0 0 58.0262 
3925 2 6.94184 2.6016 3.34562 0 1 0 63.2588 
124 1 7.10952 1.94488 4.02727 0 0 0 66.8675 
160 1 6.83858 2.92349 4.30757 0 0 0 87.6069 
1488 1 7.9352 2.48891 4.56092 0 0 0 158.224 
521 1 7.79539 2.76049 3.43137 0 0 0 62.093 
1140 1 7.09436 4.78909 0.464785 0 0 1 131.827 
1905 1 8.35372 1.54858 4.60508 0 1 1 78.3574 
1202 1 8.11742 1.65483 3.56887 0 0 1 113.294 
4048 2 8.55464 3.16266 4.26561 0 1 0 181.865 
3677 2 9.20364 1.89674 4.53026 0 1 1 105.828 
2489 1 8.87745 2.41973 3.89113 0 0 0 131.573 
296 1 4.36744 2.69336 4.73188 0 1 0 163.286 
2634 1 0.29127 3.93142 3.4672 1 0 1 89.4631 
1079 1 0.641407 3.77301 4.59288 0 0 0 65.1223 
136 1 1.428 4.28 4.07183 0 0 0 331.637 
853 1 2.45939 0.16793 4.3895 0 1 0 2408.79 
3138 1 2.41351 4.11976 4.28203 1 0 1 99.1424 
3615 2 2.10667 3.67014 3.63464 0 0 0 449.376 
3071 1 2.17363 4.49868 3.32557 1 0 0 69.5612 
3204 1 0.148415 1.68279 4.74932 1 0 1 70.6251 
2998 1 4.43494 3.51967 4.00882 1 0 0 2859.67 
291 1 0.243701 0.648238 4.58656 0 0 0 2296.66 
49 1 4.90611 4.66998 3.85757 0 0 0 56.7063 
1031 1 3.35736 3.38653 3.10656 0 0 0 153.448 
192 1 4.13218 4.43986 4.62125 0 0 0 2353.79 
3201 1 3.41221 4.26346 3.79699 1 0 0 96.6143 
4214 2 9.11989 0.226004 3.25223 1 0 1 62.2529 
1195 1 5.33066 3.77014 3.42384 0 0 1 103.543 
2394 1 9.40378 0.119072 4.10076 0 1 0 526.642 
3732 2 5.08665 3.94752 4.35477 0 0 0 84.8609 
3606 2 6.36133 4.53916 4.58299 0 0 0 62.0919 
3781 2 5.29392 1.44953 4.7848 0 1 1 145.264 
2539 1 7.88557 4.53581 4.55069 0 0 0 32.2287 
1716 1 6.98146 3.9159 4.54352 0 0 0 337.608 
1539 1 5.94214 3.73926 4.56795 0 0 -1 31.5554 
3580 2 8.75451 2.61664 0.0683512 0 0 0 45.6281 
3624 2 1.34894 2.04619 4.81451 0 0 0 77.1884 
2147 1 9.55818 1.10616 0.159076 0 0 1 46.6692 
1546 1 9.65992 4.46545 0.151245 0 0 0 208.73 
3695 2 7.52504 1.52625 4.70873 0 0 1 58.4166 
1688 1 7.85584 1.00754 0.0851264 0 0 1 157.082 
163 1 0.085169 3.1308 1.9155 0 0 1 60.139 
1702 1 7.36556 0.022073 0.296108 0 0 1 73.9601 
3587 2 3.25955 4.29707 4.78948 0 0 0 568.533 
592 1 6.10169 2.96034 0.0108178 0 0 0 139.749 
204 1 1.29884 0.894033 5.9629 0 0 0 77.3123 
231 1 0.344821 1.00011 5.56801 0 1 0 115.663 
2559 1 9.55904 4.19884 8.03152 0 0 -1 144.236 
9 1 1.16043 1.19628 4.82997 0 0 0 43.06 
2989 1 1.98473 0.669537 5.17735 1 0 -1 45.8231 
3250 1 2.0413 0.204778 6.09025 1 1 0 57.2619 
820 1 3.05857 0.652899 5.85599 0 1 0 677.032 
713 1 2.24658 1.32751 6.35724 0 0 1 61.5949 
1677 1 9.47277 2.14887 9.53401 0 0 0 167.316 
90 1 4.55192 3.83147 9.58421 0 0 -1 41.0766 
1629 1 4.83661 1.54275 6.38767 0 0 0 74.2453 
1851 1 3.90973 1.19803 5.89539 0 1 0 68.6184 
4025 2 4.41541 0.671353 5.36763 0 1 1 83.4421 
3813 2 3.66672 1.71761 5.26231 0 1 1 98.3584 
81 1 4.55267 1.67664 5.16464 0 0 -1 170.352 
341 1 0.665163 0.0779025 8.49552 0 1 0 76.6229 
2017 1 4.62277 0.488923 6.19472 0 0 0 76.4399 
68 1 5.2564 0.904405 5.50239 0 0 0 557.497 
744 1 5.62172 0.340549 6.29829 0 1 0 261.08 
742 1 5.91779 1.38204 6.33314 0 1 0 66.7677 
688 1 8.65066 4.43584 9.51172 0 0 0 52.7026 
1593 1 6.33015 0.655962 5.4789 0 0 0 54.8841 
1663 1 7.34005 0.756994 5.24135 0 0 1 62.0077 
3755 2 7.08894 0.380532 5.99047 0 1 -1 29.0087 
837 1 7.64338 1.16896 6.28249 0 1 0 304.977 
836 1 6.8064 1.51616 5.80921 0 1 0 75.3898 
1262 1 8.48269 0.916559 5.62937 0 1 0 93.6937 
586 1 3.69888 0.901659 4.88754 0 0 0 31.0631 
1185 1 9.15611 0.765339 6.46175 0 0 0 82.2307 
1633 1 6.35948 1.96438 9.4905 0 0 0 215.261 
34 1 0.874873 1.9341 5.50254 0 0 0 99.7567 
3057 1 0.23214 2.3451 9.50433 1 0 -1 77.2448 
1237 1 0.718569 3.11415 5.66854 0 0 0 65.5971 
368 1 1.97178 2.47465 9.61824 0 1 0 103.019 
1514 1 5.01621 0.946401 9.497 0 0 -1 93.8196 
164 1 1.68683 2.72617 5.28445 0 0 1 54.0764 
553 1 1.95077 1.74831 5.4723 0 0 0 118.274 
4101 2 2.51986 2.38637 5.31894 1 0 -1 75.7786 
1186 1 3.13578 1.91319 5.90108 0 0 0 33.5243 
55 1 2.25815 2.35014 6.24439 0 0 0 98.8385 
625 1 3.14541 3.01349 5.82502 0 0 1 80.0667 
627 1 4.12502 2.38466 5.76379 0 0 0 63.7691 
4095 2 4.13674 3.17261 5.48625 1 0 0 86.1906 
1866 1 8.6249 0.0460482 7.17219 0 1 0 1340.89 
1060 1 5.79023 1.78759 5.27553 0 0 0 81.7803 
2216 1 6.20853 2.4287 6.03377 0 0 0 54.2016 
2053 1 5.15065 2.44288 5.83473 0 0 0 349.693 
1516 1 8.50204 1.7861 9.48086 0 0 -1 23.3416 
3743 2 1.03058 0.314287 4.88781 0 0 0 82.2411 
2590 1 7.27 2.43989 6.18273 0 0 0 45.7584 
573 1 7.00675 2.3101 5.1153 0 0 0 116.261 
995 1 7.96868 2.89694 5.55746 0 0 0 98.0666 
1010 1 7.95473 1.81263 5.52421 0 0 0 49.9683 
3723 2 6.7457 3.28995 6.39093 0 0 -2 117.426 
498 1 9.05562 1.69443 5.37525 0 0 -1 120.999 
3750 2 8.79862 2.37552 5.89789 0 0 0 82.7941 
1639 1 9.661 1.66112 6.25007 0 0 0 346.277 
804 1 8.5906 1.6397 6.38898 0 1 0 71.5775 
1700 1 8.2289 2.68399 6.52429 0 0 0 171.431 
274 1 0.880241 4.77304 4.95265 0 1 0 500.705 
4270 2 0.519944 4.13424 5.44789 1 1 -1 181.339 
4293 2 6.81139 0.0381366 9.17919 1 1 -1 84.1916 
585 1 1.15127 3.96379 6.28629 0 0 0 138.202 
420 1 1.45058 3.88108 5.17476 0 1 0 204.636 
1187 1 2.50831 3.33199 4.9432 0 0 1 60.1157 
577 1 2.1117 3.50451 5.9801 0 0 -1 60.4758 
522 1 2.67906 4.23824 5.47598 0 0 0 83.6865 
3776 2 3.00263 3.73622 6.28562 0 0 0 103.208 
1620 1 9.37312 3.21335 9.5029 0 0 0 58.9519 
135 1 3.7684 3.92826 5.51836 0 0 0 92.0417 
4162 2 9.64031 3.27161 5.19097 0 1 0 177.434 
3021 1 3.45074 4.49843 6.35054 1 0 -1 72.0319 
1108 1 4.82469 3.45243 6.01668 0 0 -1 61.8211 
173 1 5.87087 3.44253 6.00471 0 0 0 63.4916 
4200 2 5.32042 3.20451 5.315 1 0 0 498.121 
1119 1 5.50315 4.46332 5.94891 0 0 0 599.452 
901 1 7.86633 0.0133963 8.96533 0 1 0 37.3601 
1123 1 6.40843 4.24233 5.41519 0 0 1 69.9605 
3777 2 8.356 0.448476 6.41087 0 1 0 83.836 
3744 2 7.06984 4.65863 5.98854 0 0 1 70.6597 
1228 1 6.87374 3.3134 5.53711 0 0 0 50.6 
1111 1 7.60466 4.00074 5.45788 0 0 0 52.8543 
2115 1 7.57057 3.48269 6.31107 0 0 1 43.3758 
1080 1 6.59657 4.13276 6.46632 0 0 0 53.3532 
2093 1 7.92507 4.42715 6.37583 0 0 0 113.236 
794 1 8.95936 3.25976 5.8377 0 1 0 78.6311 
3673 2 8.31135 3.79054 5.90892 0 1 1 198.992 
1078 1 8.99713 4.38328 6.21362 0 0 0 95.9695 
1040 1 9.38938 4.10385 5.25029 0 0 0 109.119 
900 1 8.43448 3.66275 4.99697 0 1 1 531.497 
1551 1 8.92949 3.76756 8.73037 0 0 -1 1.23773e+06 
4319 2 1.19657 2.04178 9.62453 0 0 0 235.101 
2475 1 0.229898 0.288609 6.43749 1 1 0 118.938 
442 1 0.347179 0.395628 7.4779 0 1 0 28.9071 
168 1 0.504261 1.19296 6.81864 0 0 0 61.9338 
4190 2 1.17073 1.46909 7.38553 1 0 0 79.1344 
434 1 0.403965 1.5383 7.77771 0 1 0 45.4367 
797 1 3.95483 1.07765 9.47208 0 1 -1 95.0524 
3388 1 1.43225 0.690437 6.96795 1 1 0 58.953 
3524 2 2.04968 0.643708 7.62669 0 0 -1 531.859 
679 1 2.56411 0.526488 6.8881 0 0 0 274.329 
270 1 3.01768 1.09281 7.66144 0 1 0 107.589 
718 1 2.03063 1.43544 7.35658 0 0 0 111.031 
646 1 3.28455 1.33019 6.71412 0 0 0 107.269 
3828 2 3.10211 0.210876 7.46194 0 0 0 60.076 
1726 1 4.14629 0.951918 7.03299 0 0 0 76.7677 
3212 1 3.61 0.185475 6.63377 1 1 -1 92.9208 
116 1 3.83686 0.444897 7.88862 0 0 0 69.0777 
1016 1 4.8946 0.649891 7.76782 0 0 0 96.8824 
1807 1 5.81515 0.136524 7.35777 0 1 0 31.179 
3592 2 5.15883 0.869874 6.92824 0 0 -1 74.6389 
1264 1 5.86769 1.26731 7.42587 0 1 -1 113.259 
74 1 4.91625 1.64092 7.41301 0 0 -1 90.8722 
1121 1 6.56808 0.645035 6.63136 0 0 0 84.8006 
1013 1 6.68732 0.680663 7.72139 0 0 0 635.145 
3899 2 7.32123 0.973629 7.08206 0 1 0 110.859 
1900 1 7.67386 0.381556 7.95694 0 1 0 61.575 
1166 1 7.35622 1.45736 7.90747 0 0 0 39.6125 
599 1 6.78684 1.64365 6.93847 0 0 -1 134.603 
1986 1 7.62544 0.231413 6.73506 0 0 0 83.4192 
2562 1 8.35284 3.38207 9.57724 0 0 -1 81.388 
545 1 8.24163 0.958031 7.19968 0 0 0 307.587 
1621 1 9.25914 1.45197 7.20945 0 0 0 58.8447 
1452 1 8.93782 0.930041 8.01855 0 1 0 17.5398 
47 1 1.35523 2.8215 6.4076 0 0 0 67.4688 
4199 2 0.393296 3.06 6.4695 1 0 0 72.909 
3065 1 1.28742 1.80141 6.55209 1 0 0 4078.53 
3041 1 0.84098 2.40343 7.21672 1 0 0 82.976 
1603 1 7.56884 4.0312 9.47925 0 0 0 77.8772 
3139 1 1.9189 2.68048 7.3898 1 0 0 84.9534 
32 1 2.83054 2.12107 7.57405 0 0 0 82.4045 
798 1 2.67125 3.16734 6.84899 0 1 0 64.663 
4194 2 3.97719 1.87397 6.45472 1 0 0 93.3576 
984 1 3.34347 2.414 6.73722 0 1 0 113.829 
494 1 4.53175 2.51041 6.70747 0 0 0 135.801 
3435 1 3.90435 1.87338 7.41218 1 1 0 71.2002 
17 1 3.72214 2.89935 7.55195 0 0 -1 81.7342 
3835 2 5.34235 2.97076 6.54719 0 0 -1 70.8321 
1511 1 5.57187 2.2097 6.90899 0 0 0 74.767 
636 1 5.00176 2.98055 7.48798 0 0 0 63.6452 
208 1 6.12343 3.13579 7.00856 0 0 1 61.7378 
3984 2 5.79423 2.93979 7.84652 0 0 0 236.44 
1360 1 6.48435 2.29173 7.6499 0 1 0 56.8862 
3605 2 6.58865 2.46787 6.78473 0 1 0 66.9436 
1143 1 7.25626 2.92978 7.15875 0 0 0 55.2597 
1558 1 7.73281 1.97597 7.05753 0 0 0 112.578 
1523 1 8.36673 1.77614 7.92117 0 0 0 39.0532 
3567 2 8.60949 2.0944 7.19827 0 1 0 70.7848 
2136 1 9.21292 2.56668 6.67386 0 0 0 57.4886 
1725 1 8.26938 2.86951 7.59759 0 0 0 95.7776 
1955 1 9.1803 2.35763 7.84671 0 1 0 287886 
216 1 0.514811 4.52023 7.07901 0 0 0 284.658 
3349 1 0.762493 3.51595 7.12082 1 0 0 104.717 
4166 2 0.279849 4.56487 8.02381 1 1 0 124.123 
687 1 1.16404 4.23039 7.84252 0 0 0 107.663 
1018 1 2.7449 3.33426 7.87647 0 0 -1 93.3402 
2641 1 2.40022 4.33384 6.57705 1 0 1 69.0816 
1090 1 1.78966 3.7385 7.17546 0 0 0 73.3021 
1246 1 2.46012 4.55813 7.61297 0 0 0 75.9837 
711 1 3.79418 3.41599 6.54061 0 0 1 74.7284 
551 1 4.48563 4.32696 6.56642 0 0 0 61.9772 
3571 2 4.60231 3.38482 6.80429 0 1 0 965.878 
638 1 3.28239 4.00146 7.26524 0 0 0 147.733 
1095 1 4.44798 3.9699 7.55229 0 0 0 80.0903 
3145 1 5.34517 3.85909 6.9088 1 0 0 64.3155 
655 1 6.30478 4.22241 7.48496 0 0 0 55.2148 
16 1 0.767625 3.96975 9.57357 0 0 -1 86.5305 
3586 2 8.18385 4.09238 8.88394 0 0 -1 63.387 
1059 1 7.32252 3.97724 7.27047 0 0 0 55.4108 
3634 2 7.51934 3.40184 7.91177 0 0 0 64.8419 
1181 1 6.5882 3.3761 7.92152 0 0 0 57.6725 
3614 2 9.3748 3.50282 6.51348 0 0 0 153.468 
1675 1 9.38416 3.41139 7.37429 0 0 0 76.4094 
2215 1 8.34337 3.85935 7.78089 0 0 0 78.7195 
506 1 8.50163 3.66471 6.78858 0 0 -1 74.4877 
607 1 8.91898 4.61625 7.24846 0 0 1 94.2978 
3018 1 1.25633 0.841958 7.95813 1 0 0 59.5736 
88 1 0.409612 0.508848 9.45311 0 0 -1 72.4237 
310 1 1.40869 0.437447 9.2685 0 1 -1 92.6314 
3014 1 0.737675 1.4117 8.76484 1 0 -1 76.1242 
1494 1 8.90375 2.60059 4.99845 0 0 0 120.274 
1197 1 1.67115 1.49296 9.04076 0 0 0 94.7271 
3988 2 1.59185 0.136777 8.34974 0 1 -1 61.6401 
3770 2 2.20389 0.713288 9.35449 0 1 0 69.3716 
209 1 2.17171 0.776618 8.48462 0 0 0 54.6464 
3757 2 3.04588 0.268097 8.43964 0 1 0 95.4017 
741 1 2.59079 1.51636 9.4421 0 1 -1 116.948 
700 1 6.92881 3.36291 8.92748 0 0 0 49.3153 
879 1 4.57194 0.412474 8.78818 0 1 0 2330.65 
926 1 4.24121 1.29792 8.32268 0 1 0 52.8255 
1747 1 3.21942 1.0134 8.72503 0 1 -1 92.0035 
3897 2 9.06468 0.448293 5.17666 0 1 0 186.832 
3467 2 5.97441 0.579044 8.11682 0 1 -1 53.0212 
3874 2 5.80611 1.29129 9.43808 0 1 0 71.8338 
1577 1 6.06562 0.469967 8.9946 0 0 -1 55.7761 
1170 1 5.43767 1.12466 8.59843 0 0 0 308.296 
801 1 6.41949 1.56059 8.40936 0 1 0 599.812 
2199 1 7.99948 3.26309 8.5992 0 0 0 63.14 
2384 1 7.0594 0.752636 8.69501 0 1 0 2065.63 
1256 1 4.55028 4.68715 5.58777 0 0 0 99.7367 
598 1 1.48306 4.78921 6.99533 0 0 -1 159.321 
610 1 5.16888 4.8055 7.57039 0 0 0 120.719 
930 1 8.09482 1.12097 8.68992 0 1 0 79.4949 
1000 1 8.88022 0.465627 9.13273 0 0 0 233.418 
2988 1 1.21074 3.13535 8.04118 1 0 0 94.5778 
1414 1 0.223844 2.20277 6.25272 0 1 1 96.0276 
50 1 1.44155 2.07501 8.09376 0 0 -1 72.9562 
2702 1 0.298509 2.57379 8.16063 1 0 0 92.6281 
3155 1 1.0774 2.50695 8.91822 1 0 0 69.8703 
1192 1 2.83327 1.39478 4.99922 0 0 0 47.8038 
515 1 2.51341 1.7514 8.44194 0 0 0 141.238 
651 1 2.1178 2.73086 8.56757 0 0 -1 82.5751 
3873 2 2.95018 0.460252 5.03249 0 1 0 138.23 
3636 2 3.34397 1.72703 8.27721 0 0 -1 161.654 
1139 1 4.50491 2.31508 8.23006 0 0 0 56.8341 
575 1 3.26747 2.62557 8.45344 0 0 -1 114.223 
525 1 3.74995 2.00051 9.08165 0 0 0 102.533 
1099 1 4.11268 3.07225 8.99218 0 0 -1 53.3458 
2173 1 4.80726 1.90583 9.17471 0 0 -1 114.938 
589 1 5.50967 2.15231 8.17384 0 0 -1 154.592 
3572 2 5.58432 2.36757 9.13639 0 1 0 88.0944 
1279 1 5.23302 3.03431 8.67307 0 1 0 83.4325 
3960 2 6.88191 4.53025 9.19377 0 0 -1 69.1387 
83 1 5.37025 4.76914 8.71697 0 0 -1 60.3051 
1094 1 6.24125 2.66853 8.64146 0 0 -1 100.388 
867 1 7.29518 1.73532 9.00116 0 1 0 38.2272 
1325 1 7.28792 2.53029 8.3059 0 1 -1 52.584 
3921 2 6.89485 2.58113 9.29215 0 1 0 107.788 
683 1 7.75578 2.58774 9.35687 0 0 0 62.3326 
4156 2 2.14906 3.99204 9.33414 0 0 -1 44.6219 
1470 1 9.233 1.53769 8.7876 0 1 0 11762.8 
588 1 6.01134 2.82851 5.09745 0 0 0 50.7136 
4216 2 8.95282 3.18909 8.10893 0 0 -1 79.0773 
3542 2 8.14954 1.99675 8.79362 0 1 -1 122.332 
1883 1 8.81046 2.59191 8.83762 0 1 0 157.23 
165 1 0.262765 3.69457 8.02283 0 0 0 9213.12 
4192 2 0.996335 3.83055 8.71874 1 0 0 75.4762 
509 1 1.48469 4.48653 8.94549 0 0 -1 119.928 
2492 1 0.336532 4.49757 8.8812 1 0 -1 67.6411 
2490 1 1.97835 3.86673 8.35224 1 0 -1 55.556 
3914 2 2.84279 4.14537 8.30669 0 1 0 42.8736 
692 1 2.80206 3.502 8.94115 0 0 0 43.1313 
950 1 2.58728 4.80117 8.7648 0 0 0 61.8889 
3086 1 1.57427 3.36068 9.25651 1 0 0 51.8544 
1174 1 8.37669 4.66959 5.43977 0 0 1 81.4737 
79 1 3.76423 4.38316 9.12689 0 0 -1 33.8291 
72 1 3.63637 3.72972 8.25919 0 0 -1 134.528 
580 1 4.62253 4.05181 8.58786 0 0 -1 100.133 
628 1 3.40219 4.79433 8.13983 0 0 0 43.0687 
3477 2 4.47353 3.30236 8.17486 0 0 -2 73.6837 
3464 2 4.68938 4.58732 9.29256 0 0 -1 72.3773 
1149 1 5.56057 3.78397 8.01084 0 0 0 65.6673 
544 1 4.69898 3.68067 5.03296 0 0 0 109.775 
3711 2 6.02995 3.51975 8.68789 0 0 -1 227.86 
1204 1 5.60286 3.99697 9.3222 0 0 0 534.56 
1135 1 6.38138 4.31677 8.56326 0 0 0 83.1044 
708 1 7.40198 4.16006 8.40504 0 0 0 95.5159 
3030 1 0.0981824 3.82415 6.21976 1 0 0 63.8959 
547 1 1.65446 4.74091 5.87489 0 0 -1 156.587 
37 1 2.95155 2.51209 9.47651 0 0 -1 98.7177 
3712 2 6.98219 4.74341 7.88007 0 0 0 640.945 
3766 2 7.51255 3.17038 4.87172 0 1 0 335.669 
1348 1 3.28032 2.45393 4.92314 0 1 0 140.824 
3900 2 5.19824 2.37783 4.8747 0 1 -1 77.3922 
3050 1 0.19787 3.25292 8.99337 1 0 0 63.5166 
2026 1 8.4459 4.75888 8.38713 0 0 0 260.436 
4141 2 5.73433 0.0764585 4.83503 1 1 -1 67.1069 
1510 1 3.04926 0.564977 9.62436 0 0 -1 86.2051 
1238 1 5.44976 4.59903 4.95344 0 0 0 60.2282 
213 1 0.950759 5.55831 0.394665 0 0 1 770.51 
3293 1 0.309157 5.9556 1.25924 1 1 0 1671.29 
769 1 1.35683 6.15216 1.59971 0 0 0 35.3167 
4074 2 1.52123 5.16937 1.19305 1 -1 1 32.5988 
2193 1 9.50302 8.89493 4.58791 0 0 0 19811.2 
3643 2 8.51306 9.14087 4.37731 0 0 0 161.245 
3128 1 1.97658 5.8002 0.802796 1 0 1 481.863 
657 1 2.93517 6.13722 0.95994 0 0 1 73.9494 
181 1 2.87954 5.05184 0.946243 0 0 0 394.972 
1962 1 9.64034 8.03862 2.82665 0 0 0 70.1496 
973 1 3.90317 5.50035 1.02645 0 1 1 843.361 
319 1 0.775224 7.401 0.132287 0 1 0 64.9967 
3068 1 0.520316 4.93932 3.73666 1 0 0 1037.87 
686 1 6.87983 6.92008 0.109845 0 0 1 151.751 
3001 1 4.33484 7.54747 0.0996892 1 0 0 744951 
4275 2 3.68653 6.16821 1.58201 1 0 0 68.679 
1201 1 5.93516 5.54263 0.593407 0 0 1 70.3338 
1586 1 5.73091 6.1318 1.58678 0 0 0 76.449 
3143 1 0.195448 7.89541 0.834766 1 0 0 27.8628 
499 1 4.9489 5.74189 0.816328 0 0 0 38.2706 
38 1 5.67003 6.55239 0.467567 0 0 0 69.9615 
3904 2 7.31126 5.55305 0.846244 0 1 0 104.703 
1150 1 6.6452 5.27885 1.36083 0 0 1 7749.85 
97 1 6.69362 6.1971 0.849356 0 0 0 96.8316 
1480 1 7.90081 5.00493 1.23299 0 0 1 28.8589 
658 1 7.46344 6.02523 1.54146 0 0 0 1.92664e+06 
1720 1 8.03724 5.63671 0.365658 0 0 1 112.344 
1370 1 9.04393 5.3516 0.519846 0 0 1 80.8954 
2694 1 8.54034 6.00998 1.23904 0 0 0 698.487 
3890 2 8.88063 5.2191 1.43866 0 1 0 121.886 
579 1 5.39672 5.0521 1.53625 0 0 0 84.9885 
2187 1 0.267432 6.55522 0.458257 1 0 1 39.8075 
3132 1 1.29856 6.57684 0.649507 1 0 1 72.7704 
3327 1 0.649388 7.03961 1.41779 1 1 1 41.1933 
1654 1 1.39074 7.6448 0.991333 0 0 1 50.7146 
3535 2 1.82831 9.63097 3.62153 0 0 0 91.5829 
3983 2 2.23192 6.32945 1.4603 0 0 0 42.8669 
234 1 2.31117 7.03151 0.806267 0 0 0 134.16 
4218 2 2.93518 7.67145 0.930661 1 0 1 171.522 
919 1 3.13033 6.99867 1.52298 0 0 1 70.0699 
608 1 4.11009 6.67281 0.99432 0 0 1 82.8052 
898 1 3.36415 7.04739 0.407736 0 0 1 9757.84 
327 1 3.98959 7.76813 1.0547 0 0 0 16.5795 
1242 1 0.184676 7.67552 2.44011 0 0 1 491.347 
1069 1 6.23244 7.29204 0.890612 0 0 0 63.5149 
3725 2 5.69789 7.92607 1.35026 0 0 0 72.8691 
2968 1 5.02369 7.25669 0.925066 1 0 0 66.8319 
1001 1 5.47323 8.06457 0.38443 0 0 0 42.9799 
645 1 7.65207 9.5211 0.705847 0 0 1 148.778 
3554 2 4.80208 8.13861 1.05841 0 0 0 125.938 
4143 2 7.48134 9.53403 3.2849 0 0 0 85.7848 
1041 1 7.81788 6.66605 0.696238 0 0 0 270.562 
3810 2 7.06798 6.91936 1.04665 0 0 1 82.618 
1926 1 7.25435 7.74465 0.7061 0 0 1 933.834 
3710 2 7.86846 8.03449 1.41348 0 0 1 111.874 
411 1 1.27018 9.5764 2.74491 0 0 1 159.193 
514 1 8.88749 6.86856 0.667656 0 0 0 79.1834 
1729 1 8.25507 7.62903 0.723223 0 0 1 85.8081 
4310 2 8.43967 6.82795 1.37675 0 1 -1 120.02 
1477 1 9.60722 7.73913 1.11895 0 0 1 176.097 
2166 1 9.69393 9.6327 3.56581 0 0 1 94.7268 
2625 1 0.939212 8.52464 0.536788 1 0 1 60.3696 
3661 2 0.916313 9.45387 0.425117 0 0 -1 54.6747 
2624 1 9.02988 9.54677 1.82249 0 0 0 46.3374 
1522 1 3.64332 6.08237 0.166918 0 0 0 92.1329 
648 1 1.68371 8.53801 1.35835 0 0 1 63.0199 
109 1 2.25695 8.14221 0.641722 0 0 0 61.6439 
2990 1 2.94485 9.09482 0.443987 1 0 0 1105.02 
3609 2 2.27172 9.0127 1.02528 0 0 1 57.3168 
66 1 1.91244 9.17767 0.160697 0 0 0 188.959 
4057 2 4.63312 4.95459 1.08929 1 0 1 59.4304 
725 1 3.48422 8.16872 0.219521 0 0 1 168.642 
221 1 3.26518 8.42744 1.3296 0 0 1 47.211 
112 1 3.58773 9.41709 1.31717 0 0 0 74.1772 
3559 2 3.77262 8.81186 0.720985 0 0 0 104.961 
3020 1 4.42315 8.68961 1.54155 1 0 0 44.9509 
1465 1 4.4604 8.53806 0.352744 0 0 1 70.9276 
623 1 6.06925 8.96748 0.247786 0 0 1 113.347 
376 1 5.38131 8.75029 1.16554 0 0 0 1937.7 
4144 2 5.26384 9.26026 0.337641 1 0 0 87.9008 
362 1 6.34476 8.3698 1.07056 0 0 1 98.4403 
3519 2 4.99796 9.40693 1.55282 0 0 0 105.353 
3538 2 5.13713 7.22063 0.0605277 0 0 0 86.5893 
3652 2 6.84737 9.20163 0.884818 0 0 0 41.8368 
1873 1 7.04851 8.62817 0.239995 0 0 1 59.4221 
840 1 7.27767 8.6819 1.42351 0 0 0 77.637 
1881 1 8.10778 8.63578 0.695584 0 0 1 85.7413 
4051 2 8.84594 8.29332 1.11975 0 0 0 67.8868 
2086 1 9.25817 9.08208 0.930732 0 0 0 124.346 
1708 1 8.96281 8.27421 0.168774 0 0 1 77.3199 
802 1 1.68459 9.55559 1.09429 0 0 0 63.4136 
3162 1 0.856083 5.17576 1.74283 1 0 1 61.1835 
613 1 0.699863 5.24294 2.72077 0 0 0 79.2145 
3792 2 1.39171 5.60625 2.30402 0 1 1 108643 
2997 1 0.660597 6.26416 2.34994 1 0 0 21.9196 
3579 2 2.44377 5.64205 2.579 0 1 1 59.0006 
82 1 2.14537 5.55522 1.81197 0 0 0 77.4953 
92 1 2.67721 6.3587 2.24431 0 0 0 77.6168 
559 1 1.73254 5.48012 3.15377 0 0 0 53.0256 
3303 1 1.68249 6.40479 2.53085 1 0 0 58.4498 
3 1 4.49418 5.29336 3.04495 0 0 0 416.733 
125 1 3.24967 5.50991 1.88113 0 0 1 110.282 
526 1 3.54149 5.85395 2.81766 0 0 0 461.694 
530 1 4.40934 5.66894 1.93397 0 0 0 94.4084 
3123 1 4.61874 6.30615 2.82578 1 0 1 55.8645 
771 1 1.86474 4.92458 0.166675 0 1 0 147.492 
1083 1 5.3235 5.5993 2.48129 0 0 0 9.70926 
3486 2 6.02489 5.65644 3.08357 0 0 0 167.147 
1225 1 6.42539 5.75308 2.28252 0 0 1 255.083 
1552 1 7.26352 5.05657 2.2352 0 0 0 104.822 
1042 1 7.39977 6.10149 2.68717 0 0 0 67.2921 