ITEM: TIMESTEP
6600
ITEM: NUMBER OF ATOMS
4320
ITEM: BOX BOUNDS xy xz yz pp pp pp 
0 19.5031 0.1931
0 19.31 0
0 9.655 0
ITEM: ATOMS id type x y z ix iy iz D2 
1232 1 0.251272 0.656502 1.20851 0 0 0 0.0255077 
3427 1 1.16273 0.387946 0.636672 1 1 1 0.0339277 
1106 1 0.61162 1.42556 0.297408 0 0 0 0.0184465 
191 1 1.22641 1.00121 1.40424 0 0 0 0.0219855 
1189 1 1.91773 1.109 0.42005 0 0 0 0.0256059 
3040 1 2.77484 0.352792 0.98393 1 0 0 0.0270952 
3774 2 2.88069 1.09608 0.604539 0 1 -1 0.0358562 
3820 2 8.32735 0.11685 0.0184131 0 1 1 0.0656253 
772 1 4.36295 0.0957899 0.194396 0 1 0 0.0283962 
1071 1 3.7857 0.677672 0.946492 0 0 0 0.0434492 
80 1 3.30904 1.50983 1.49058 0 0 0 0.0279208 
3258 1 0.173544 0.235019 3.66782 1 1 0 0.0215036 
870 1 5.81064 0.688657 0.406986 0 1 1 0.0404119 
3953 2 5.95353 0.629302 1.37953 1 0 -1 0.0487479 
1224 1 6.26759 1.41738 0.937867 0 0 1 0.0786294 
766 1 4.8324 0.698234 0.891783 0 1 0 0.035885 
1627 1 6.51759 4.33488 3.72692 0 0 1 0.0935035 
572 1 6.65109 0.380408 0.940964 0 0 0 0.0455413 
3848 2 7.14026 1.17479 0.821005 0 0 1 0.0651718 
1215 1 7.68497 0.610272 1.08176 0 0 1 0.0507658 
1300 1 6.98843 1.16914 1.68543 0 1 0 0.0355898 
994 1 8.71886 3.36308 3.40003 0 0 0 0.0324491 
1330 1 8.64482 0.904551 0.826863 0 1 0 0.0369164 
1513 1 9.68743 4.64712 4.39634 0 0 0 0.0278088 
1074 1 9.56224 0.85859 1.17392 0 0 0 0.0384001 
2055 1 7.88767 1.66581 1.25449 0 0 0 0.0522182 
691 1 4.97342 2.8852 0.024357 0 0 1 0.0532285 
3019 1 0.381358 1.74915 1.34593 1 0 0 0.0244799 
3546 2 0.596354 2.26972 0.684817 0 1 0 0.0289029 
2959 1 1.01638 2.95404 0.419272 1 0 0 0.0186552 
538 1 1.40674 1.94815 0.838512 0 0 0 0.0177096 
606 1 0.914852 2.66248 1.45359 0 0 1 0.0208516 
129 1 0.70807 2.62879 4.61741 0 0 0 0.0278141 
3495 2 5.235 0.0962719 0.353216 0 0 1 0.0327808 
1103 1 8.40619 0.119238 2.81544 0 0 0 0.0251112 
541 1 2.42486 1.93503 0.77376 0 0 0 0.0257415 
429 1 1.85922 2.94474 1.00886 0 1 1 0.0638208 
1392 1 3.47842 3.50654 0.127044 0 1 1 0.0240775 
1254 1 3.1022 2.73356 0.891226 0 0 1 0.0299612 
1932 1 4.46221 1.57451 0.64306 0 1 1 0.111239 
719 1 3.4064 1.74007 0.468777 0 0 0 0.0266081 
698 1 4.04529 2.36535 1.30687 0 0 1 0.0786654 
611 1 3.99762 2.60284 0.308472 0 0 1 0.0457956 
3483 2 4.93524 2.38032 0.757658 0 0 0 0.0380462 
4 1 5.14349 1.86401 1.43087 0 0 0 0.0543531 
2120 1 5.49525 1.80615 0.358777 0 0 1 0.0267605 
1229 1 5.85533 2.58449 0.93612 0 0 0 0.0367315 
703 1 4.8999 2.97867 1.40328 0 0 0 0.0403351 
3928 2 6.03004 2.05635 1.5887 0 1 0 0.0267093 
3772 2 8.03889 4.7121 0.4149 0 1 1 0.0676253 
3490 2 6.58005 2.38692 0.511631 0 0 1 0.0314521 
993 1 7.24022 1.90024 0.385601 0 0 0 0.0357446 
1247 1 6.91997 2.35517 1.36906 0 0 1 0.0566194 
1863 1 7.12452 3.04482 0.422326 0 1 0 0.0354992 
1565 1 9.36732 3.55569 4.24409 0 0 0 0.0853233 
1573 1 7.99816 2.65346 0.871021 0 0 0 0.0197484 
1339 1 8.96101 1.97561 0.800577 0 1 0 0.0333582 
1946 1 8.89811 3.07388 0.78303 0 1 0 0.0198266 
4090 2 8.27318 3.2445 1.45041 0 0 0 0.0226276 
2171 1 8.76331 2.49618 1.70011 0 0 0 0.0202982 
249 1 2.05992 0.0557405 0.277176 0 1 0 0.0262639 
1193 1 0.786252 3.60876 1.19578 0 0 0 0.0381142 
217 1 0.87462 4.68287 0.857403 0 0 1 0.0322684 
3157 1 1.61816 3.95599 0.580118 1 0 1 0.0317013 
146 1 2.43286 3.41993 0.258374 0 0 0 0.0435416 
3186 1 2.99745 3.94067 1.08699 1 0 1 0.13172 
1196 1 2.1221 4.5151 1.39651 0 0 1 0.0861834 
2985 1 2.80735 4.43402 0.102024 1 0 0 0.0245036 
825 1 7.89081 3.59378 4.07113 0 1 0 0.0340763 
3620 2 8.81465 4.50814 4.76014 0 0 0 0.0535956 
11 1 3.87464 3.43646 1.18233 0 0 0 0.0280403 
255 1 3.94158 4.3996 0.582293 0 0 0 0.0410383 
618 1 3.6308 4.74771 2.73142 0 0 1 0.0695552 
1223 1 4.75533 4.05668 1.09533 0 0 1 0.0329287 
4147 2 4.54044 3.22629 0.671174 1 1 0 0.0383466 
616 1 5.52575 3.5233 0.602707 0 0 1 0.0233327 
1176 1 6.1037 4.48497 0.908943 0 0 1 0.0284888 
30 1 5.20967 4.69466 0.390738 0 0 0 0.0272698 
2004 1 6.42673 3.52548 1.13669 0 0 0 0.0423249 
3794 2 7.11799 3.90352 0.704243 0 0 0 0.0240187 
462 1 7.11755 4.28001 1.46103 0 1 0 0.0294095 
1034 1 7.42715 3.23213 1.62792 0 0 0 0.0263519 
1382 1 6.52142 3.98715 0.113695 0 0 1 0.0250778 
3594 2 0.155423 4.76012 2.0072 0 0 1 0.085737 
1501 1 7.91786 3.73527 0.814818 0 0 0 0.0207758 
1220 1 8.72132 4.40189 0.953379 0 0 1 0.0258069 
4018 2 8.96293 3.81291 0.408969 0 0 -1 0.0245537 
3980 2 0.555149 1.16893 1.92834 1 0 1 0.0306678 
3104 1 0.531969 0.941125 2.8098 1 0 0 0.0307995 
3013 1 0.765492 0.25673 2.00196 1 0 0 0.0229131 
539 1 9.65514 3.81842 0.984738 0 0 0 0.0172547 
256 1 2.23727 1.179 1.4512 0 1 0 0.0226329 
3190 1 1.63171 0.720889 2.34976 1 0 1 0.026272 
3217 1 3.13517 0.948389 2.44251 1 1 0 0.126855 
340 1 2.61533 0.160336 2.17601 0 1 0 0.0544814 
3573 2 3.27948 0.547224 1.6333 0 1 3 0.0435083 
3164 1 3.1378 0.366722 3.23569 1 0 1 0.0815167 
661 1 4.33888 1.23475 1.69055 0 0 1 0.0406504 
914 1 3.96036 0.218902 2.10002 0 1 1 0.0274919 
486 1 4.06776 0.922243 2.98652 0 0 0 0.0538899 
183 1 5.00141 1.34391 2.50458 0 0 0 0.0246381 
299 1 5.20723 0.50488 1.80995 0 1 0 0.0334993 
1770 1 5.89443 1.25691 1.93994 0 1 0 0.0291437 
1033 1 5.71776 0.493752 2.78408 0 0 0 0.0249029 
3683 2 5.83375 1.28727 2.82089 0 1 0 0.0281104 
4080 2 4.74932 0.49375 2.64244 1 0 0 0.0302353 
1971 1 6.53535 0.166811 1.92446 0 1 0 0.0794882 
2016 1 6.66416 1.06987 2.70494 0 0 0 0.0283918 
806 1 7.59156 0.323128 2.10994 0 1 0 0.0772939 
1462 1 7.65268 0.781029 3.035 0 1 1 0.0538729 
1423 1 6.82748 0.139157 3.05883 0 1 1 0.0485327 
1571 1 7.85174 1.3172 2.20776 0 0 0 0.0245574 
716 1 2.64831 4.73345 2.36499 0 0 1 0.0453459 
1957 1 9.53795 1.98302 3.09381 0 1 1 0.0204565 
635 1 8.59979 0.407223 1.75301 0 0 1 0.0335362 
890 1 8.78973 1.19664 2.79284 0 1 1 0.0320613 
1830 1 8.77036 1.46021 1.72047 0 1 0 0.0242084 
4103 2 4.32366 0.00349841 4.75589 0 0 0 0.0460488 
4133 2 1.26031 4.7724 3.37024 1 1 0 0.0896688 
2949 1 1.27022 1.70735 2.11488 1 1 1 0.0347724 
4245 2 0.439879 2.27504 2.19726 1 0 0 0.0248222 
315 1 0.680397 1.97441 3.00674 0 1 0 0.0198565 
2495 1 0.888506 2.8813 2.58985 1 0 0 0.0216406 
29 1 2.35124 1.58346 2.48381 0 0 0 0.0793696 
4302 2 1.64059 2.04298 2.83839 0 1 -1 0.0670228 
4225 2 1.80611 2.0503 1.56938 1 0 1 0.041755 
1036 1 2.73506 2.24788 1.69653 0 0 0 0.0495615 
555 1 1.83532 2.68558 2.18015 0 0 0 0.025274 
42 1 2.75743 2.57048 2.69504 0 0 0 0.0677787 
1115 1 2.60322 3.26006 1.79014 0 0 0 0.0413399 
1047 1 4.60128 2.41977 2.25937 0 0 0 0.023833 
3124 1 3.74073 1.82059 2.37112 1 0 1 0.0419801 
505 1 3.56402 2.84061 2.10554 0 0 0 0.046016 
3647 2 3.57686 2.39562 2.94874 0 1 1 0.075979 
677 1 4.29904 2.99984 3.09314 0 0 1 0.0457049 
1435 1 5.58176 2.1775 2.40001 0 1 0 0.0346136 
3612 2 6.12773 2.73196 2.76279 0 0 1 0.027922 
57 1 6.05644 3.0081 1.90814 0 0 0 0.036951 
1068 1 5.30997 3.20952 2.5669 0 0 0 0.0364997 
1387 1 6.29466 1.97291 3.19243 0 1 0 0.032092 
1198 1 6.54739 2.01094 2.21802 0 0 1 0.0354665 
1214 1 7.3535 1.93875 2.89081 0 0 0 0.0240792 
1580 1 6.93329 2.89218 2.52583 0 0 0 0.0231331 
1003 1 7.73409 2.30769 1.98419 0 0 0 0.0203249 
1295 1 1.03214 0.0972962 3.03075 0 1 0 0.0449327 
3676 2 9.4791 2.07052 2.17609 0 0 -1 0.0566914 
1485 1 8.55496 2.23126 2.80992 0 0 -1 0.0405956 
2307 1 9.24477 3.08035 2.54352 0 1 0 0.0344966 
694 1 0.0705614 4.79359 0.166278 0 0 1 0.0321867 
4209 2 1.26734 4.32695 1.63055 1 0 1 0.0528102 
587 1 0.613688 4.03836 2.15279 0 0 0 0.029576 
1433 1 1.33646 3.85569 3.09477 0 0 1 0.0461568 
593 1 1.58968 4.72228 2.34441 0 0 0 0.135823 
1240 1 1.51451 3.5849 1.92257 0 0 1 0.0835105 
4197 2 3.01072 4.21249 2.97631 1 0 0 0.0423395 
3540 2 2.21945 4.04826 2.12765 0 0 0 0.0704604 
2595 1 2.39965 3.58003 2.80513 1 0 0 0.0504184 
4171 2 0.220823 3.44317 0.242498 1 0 0 0.0521235 
695 1 3.25698 3.88334 2.18698 0 0 1 0.0872542 
2982 1 4.36013 3.6429 2.10069 1 0 0 0.0539829 
563 1 4.3486 4.11412 3.126 0 0 0 0.0458212 
1442 1 3.91803 4.63143 1.63842 0 1 1 0.071877 
1100 1 6.22797 4.64536 2.15018 0 0 0 0.0460564 
684 1 6.60367 1.3642 4.7495 0 0 0 0.0290654 
13 1 4.77622 4.62073 2.23395 0 0 0 0.265612 
997 1 5.55 3.9517 1.79989 0 0 0 0.051915 
1420 1 6.27242 3.74377 2.81101 0 1 1 0.0450631 
3478 2 6.7887 4.51653 2.91124 0 0 0 0.0461674 
4017 2 6.66536 3.71079 2.00744 0 1 0 0.0373294 
887 1 7.28715 3.92122 2.55119 0 1 1 0.0247763 
3951 2 7.94438 3.73756 3.16225 0 0 1 0.0315573 
1277 1 8.15886 3.17632 2.46132 0 1 0 0.0188243 
649 1 8.1124 4.16021 1.85089 0 0 1 0.0342786 
709 1 8.99324 3.59429 1.70478 0 0 0 0.0182235 
1009 1 8.1973 4.50519 2.7911 0 0 0 0.0243707 
3742 2 8.76579 3.78199 2.51341 0 0 1 0.015471 
2638 1 8.99575 4.56989 2.13877 0 0 1 0.0260194 
1486 1 9.46803 0.299946 2.39538 0 0 0 0.0189043 
351 1 1.90243 0.0150397 1.41765 0 1 0 0.0564595 
1066 1 1.54698 1.30739 3.17155 0 0 0 0.0411576 
612 1 0.624574 1.21519 3.83136 0 0 0 0.0245108 
214 1 1.24329 0.37042 4.06133 0 0 0 0.0280619 
1210 1 8.75143 4.3599 3.80329 0 0 1 0.0488942 
14 1 2.07619 0.470877 3.30147 0 0 0 0.0406352 
4131 2 2.61432 1.1432 3.21755 0 1 0 0.0394391 
2699 1 9.165 0.0573667 0.414642 0 0 0 0.0453931 
2954 1 1.95654 1.15109 4.17455 1 0 0 0.0275175 
758 1 3.01007 1.04997 4.08398 0 1 0 0.0757472 
1460 1 4.72111 0.824092 4.55128 0 1 0 0.0366652 
115 1 3.92904 0.398676 3.91745 0 0 0 0.0432711 
3476 2 4.51569 1.19482 3.77184 0 0 0 0.040242 
3330 1 3.90957 1.67937 4.25519 1 1 0 0.0545367 
991 1 4.96894 0.443339 3.54005 0 0 0 0.080297 
1910 1 9.44651 4.09955 2.9939 0 1 1 0.0489176 
704 1 5.46822 1.36457 3.62259 0 0 0 0.0909544 
631 1 5.72888 0.803133 4.42822 0 0 1 0.036557 
659 1 6.42789 1.02615 3.72069 0 0 1 0.0698345 
3653 2 7.16453 1.2887 3.41496 0 1 -1 0.0934161 
1536 1 7.43495 0.892213 4.13528 0 0 0 0.043775 
1109 1 6.65238 0.267257 4.39751 0 0 -1 0.0470906 
3801 2 7.47352 0.235552 4.6103 0 1 1 0.0248529 
41 1 3.55582 3.45272 4.53647 0 0 0 0.0308943 
1127 1 5.65339 4.67703 3.01726 0 0 1 0.207858 
1623 1 8.2619 0.413822 4.68662 0 0 0 0.0448537 
1271 1 8.52071 0.750374 3.75381 0 1 0 0.0294714 
2133 1 9.24715 1.0292 4.5686 0 0 0 0.0379486 
4039 2 8.97993 1.52404 3.63729 0 1 1 0.0260206 
2140 1 7.08138 3.4857 3.49363 0 0 1 0.038923 
1147 1 1.27362 2.06074 3.9566 0 0 1 0.024379 
2579 1 0.710805 2.96212 3.64995 1 0 0 0.0216335 
2273 1 6.74571 1.02206 0.00328279 0 1 0 0.0877905 
3012 1 1.77378 2.77074 3.33425 1 0 0 0.0242406 
1107 1 1.64916 3.18022 4.28545 0 0 0 0.0391923 
8 1 2.31341 1.91094 3.55191 0 0 0 0.025316 
3062 1 2.24487 2.2482 4.56939 1 0 0 0.0449354 
4064 2 3.04969 1.94766 4.13247 0 1 1 0.0278142 
1844 1 2.69388 3.09823 3.90481 0 0 1 0.0658929 
2056 1 7.54366 4.41513 3.52221 0 0 0 0.0295227 
1180 1 3.32966 1.59632 3.31055 0 0 0 0.0387406 
26 1 4.32646 1.94148 3.32502 0 0 0 0.0468808 
3734 2 4.60135 2.69346 3.84839 1 0 0 0.0301677 
2554 1 3.63281 2.63827 3.853 1 0 0 0.0332544 
89 1 4.86998 1.94258 4.22154 0 0 0 0.0437756 
1618 1 5.28746 2.43727 3.35873 0 0 1 0.0273655 
69 1 5.93532 2.11687 4.23459 0 0 0 0.0436182 
1528 1 5.34402 2.99259 4.25422 0 0 0 0.0339014 
1102 1 6.14294 3.09906 3.64669 0 0 0 0.039532 
3925 2 6.94184 2.6016 3.34562 0 1 0 0.0225195 
124 1 7.10952 1.94488 4.02727 0 0 0 0.0496116 
160 1 6.83858 2.92349 4.30757 0 0 0 0.045355 
1488 1 7.9352 2.48891 4.56092 0 0 0 0.0341199 
521 1 7.79539 2.76049 3.43137 0 0 0 0.0331843 
1140 1 7.09436 4.78909 0.464785 0 0 1 0.0296895 
1905 1 8.35372 1.54858 4.60508 0 1 1 0.0269265 
1202 1 8.11742 1.65483 3.56887 0 0 1 0.0342941 
4048 2 8.55464 3.16266 4.26561 0 1 0 0.0518231 
3677 2 9.20364 1.89674 4.53026 0 1 1 0.0478824 
2489 1 8.87745 2.41973 3.89113 0 0 0 0.0443468 
296 1 4.36744 2.69336 4.73188 0 1 0 0.0361657 
2634 1 0.29127 3.93142 3.4672 1 0 1 0.0345005 
1079 1 0.641407 3.77301 4.59288 0 0 0 0.0188077 
136 1 1.428 4.28 4.07183 0 0 0 0.034396 
853 1 2.45939 0.16793 4.3895 0 1 0 0.0381303 
3138 1 2.41351 4.11976 4.28203 1 0 1 0.0309871 
3615 2 2.10667 3.67014 3.63464 0 0 0 0.0500551 
3071 1 2.17363 4.49868 3.32557 1 0 0 0.0543817 
3204 1 0.148415 1.68279 4.74932 1 0 1 0.0211431 
2998 1 4.43494 3.51967 4.00882 1 0 0 0.0350694 
291 1 0.243701 0.648238 4.58656 0 0 0 0.0563704 
49 1 4.90611 4.66998 3.85757 0 0 0 0.0863621 
1031 1 3.35736 3.38653 3.10656 0 0 0 0.0295064 
192 1 4.13218 4.43986 4.62125 0 0 0 0.0419753 
3201 1 3.41221 4.26346 3.79699 1 0 0 0.0631961 
4214 2 9.11989 0.226004 3.25223 1 0 1 0.0202023 
1195 1 5.33066 3.77014 3.42384 0 0 1 0.057731 
2394 1 9.40378 0.119072 4.10076 0 1 0 0.0304758 
3732 2 5.08665 3.94752 4.35477 0 0 0 0.0840906 
3606 2 6.36133 4.53916 4.58299 0 0 0 0.0513866 
3781 2 5.29392 1.44953 4.7848 0 1 1 0.087553 
2539 1 7.88557 4.53581 4.55069 0 0 0 0.0240935 
1716 1 6.98146 3.9159 4.54352 0 0 0 0.0338012 
1539 1 5.94214 3.73926 4.56795 0 0 -1 0.0414077 
3580 2 8.75451 2.61664 0.0683512 0 0 0 0.0660688 
3624 2 1.34894 2.04619 4.81451 0 0 0 0.0312062 
2147 1 9.55818 1.10616 0.159076 0 0 1 0.0201521 
1546 1 9.65992 4.46545 0.151245 0 0 0 0.023627 
3695 2 7.52504 1.52625 4.70873 0 0 1 0.0505892 
1688 1 7.85584 1.00754 0.0851264 0 0 1 0.10279 
163 1 0.085169 3.1308 1.9155 0 0 1 0.0189699 
1702 1 7.36556 0.022073 0.296108 0 0 1 0.0479456 
3587 2 3.25955 4.29707 4.78948 0 0 0 0.0289696 
592 1 6.10169 2.96034 0.0108178 0 0 0 0.0263259 
204 1 1.29884 0.894033 5.9629 0 0 0 0.0326666 
231 1 0.344821 1.00011 5.56801 0 1 0 0.0459141 
2559 1 9.55904 4.19884 8.03152 0 0 -1 0.0422058 
9 1 1.16043 1.19628 4.82997 0 0 0 0.0207101 
2989 1 1.98473 0.669537 5.17735 1 0 -1 0.0234119 
3250 1 2.0413 0.204778 6.09025 1 1 0 0.0375627 
820 1 3.05857 0.652899 5.85599 0 1 0 0.0275796 
713 1 2.24658 1.32751 6.35724 0 0 1 0.0368878 
1677 1 9.47277 2.14887 9.53401 0 0 0 0.0339693 
90 1 4.55192 3.83147 9.58421 0 0 -1 0.0419301 
1629 1 4.83661 1.54275 6.38767 0 0 0 0.0218167 
1851 1 3.90973 1.19803 5.89539 0 1 0 0.0300153 
4025 2 4.41541 0.671353 5.36763 0 1 1 0.0347862 
3813 2 3.66672 1.71761 5.26231 0 1 1 0.0406099 
81 1 4.55267 1.67664 5.16464 0 0 -1 0.0350532 
341 1 0.665163 0.0779025 8.49552 0 1 0 0.025641 
2017 1 4.62277 0.488923 6.19472 0 0 0 0.0236169 
68 1 5.2564 0.904405 5.50239 0 0 0 0.02574 
744 1 5.62172 0.340549 6.29829 0 1 0 0.0324142 
742 1 5.91779 1.38204 6.33314 0 1 0 0.0373667 
688 1 8.65066 4.43584 9.51172 0 0 0 0.0244047 
1593 1 6.33015 0.655962 5.4789 0 0 0 0.0350615 
1663 1 7.34005 0.756994 5.24135 0 0 1 0.067663 
3755 2 7.08894 0.380532 5.99047 0 1 -1 0.0405159 
837 1 7.64338 1.16896 6.28249 0 1 0 0.0323947 
836 1 6.8064 1.51616 5.80921 0 1 0 0.0343761 
1262 1 8.48269 0.916559 5.62937 0 1 0 0.0357161 
586 1 3.69888 0.901659 4.88754 0 0 0 0.0439263 
1185 1 9.15611 0.765339 6.46175 0 0 0 0.0321277 
1633 1 6.35948 1.96438 9.4905 0 0 0 0.050182 
34 1 0.874873 1.9341 5.50254 0 0 0 0.0272052 
3057 1 0.23214 2.3451 9.50433 1 0 -1 0.0166301 
1237 1 0.718569 3.11415 5.66854 0 0 0 0.0327412 
368 1 1.97178 2.47465 9.61824 0 1 0 0.024383 
1514 1 5.01621 0.946401 9.497 0 0 -1 0.0241606 
164 1 1.68683 2.72617 5.28445 0 0 1 0.0331176 
553 1 1.95077 1.74831 5.4723 0 0 0 0.024161 
4101 2 2.51986 2.38637 5.31894 1 0 -1 0.0286817 
1186 1 3.13578 1.91319 5.90108 0 0 0 0.0832162 
55 1 2.25815 2.35014 6.24439 0 0 0 0.022753 
625 1 3.14541 3.01349 5.82502 0 0 1 0.0345618 
627 1 4.12502 2.38466 5.76379 0 0 0 0.0762485 
4095 2 4.13674 3.17261 5.48625 1 0 0 0.0368581 
1866 1 8.6249 0.0460482 7.17219 0 1 0 0.0355547 
1060 1 5.79023 1.78759 5.27553 0 0 0 0.0338182 
2216 1 6.20853 2.4287 6.03377 0 0 0 0.0241768 
2053 1 5.15065 2.44288 5.83473 0 0 0 0.0621601 
1516 1 8.50204 1.7861 9.48086 0 0 -1 0.04802 
3743 2 1.03058 0.314287 4.88781 0 0 0 0.130064 
2590 1 7.27 2.43989 6.18273 0 0 0 0.0445218 
573 1 7.00675 2.3101 5.1153 0 0 0 0.0317989 
995 1 7.96868 2.89694 5.55746 0 0 0 0.0297365 
1010 1 7.95473 1.81263 5.52421 0 0 0 0.0569213 
3723 2 6.7457 3.28995 6.39093 0 0 -2 0.0793446 
498 1 9.05562 1.69443 5.37525 0 0 -1 0.0408502 
3750 2 8.79862 2.37552 5.89789 0 0 0 0.0768372 
1639 1 9.661 1.66112 6.25007 0 0 0 0.0176521 
804 1 8.5906 1.6397 6.38898 0 1 0 0.0265193 
1700 1 8.2289 2.68399 6.52429 0 0 0 0.0235118 
274 1 0.880241 4.77304 4.95265 0 1 0 0.0297407 
4270 2 0.519944 4.13424 5.44789 1 1 -1 0.0751731 
4293 2 6.81139 0.0381366 9.17919 1 1 -1 0.0300869 
585 1 1.15127 3.96379 6.28629 0 0 0 0.023557 
420 1 1.45058 3.88108 5.17476 0 1 0 0.0449257 
1187 1 2.50831 3.33199 4.9432 0 0 1 0.0354066 
577 1 2.1117 3.50451 5.9801 0 0 -1 0.0316859 
522 1 2.67906 4.23824 5.47598 0 0 0 0.0245909 
3776 2 3.00263 3.73622 6.28562 0 0 0 0.0494162 
1620 1 9.37312 3.21335 9.5029 0 0 0 0.0369889 
135 1 3.7684 3.92826 5.51836 0 0 0 0.029961 
4162 2 9.64031 3.27161 5.19097 0 1 0 0.0434167 
3021 1 3.45074 4.49843 6.35054 1 0 -1 0.0281472 
1108 1 4.82469 3.45243 6.01668 0 0 -1 0.0487269 
173 1 5.87087 3.44253 6.00471 0 0 0 0.0656134 
4200 2 5.32042 3.20451 5.315 1 0 0 0.0854922 
1119 1 5.50315 4.46332 5.94891 0 0 0 0.0225611 
901 1 7.86633 0.0133963 8.96533 0 1 0 0.0301501 
1123 1 6.40843 4.24233 5.41519 0 0 1 0.0364311 
3777 2 8.356 0.448476 6.41087 0 1 0 0.0655317 
3744 2 7.06984 4.65863 5.98854 0 0 1 0.0284507 
1228 1 6.87374 3.3134 5.53711 0 0 0 0.0314016 
1111 1 7.60466 4.00074 5.45788 0 0 0 0.0320274 
2115 1 7.57057 3.48269 6.31107 0 0 1 0.0596995 
1080 1 6.59657 4.13276 6.46632 0 0 0 0.035702 
2093 1 7.92507 4.42715 6.37583 0 0 0 0.0692378 
794 1 8.95936 3.25976 5.8377 0 1 0 0.0303966 
3673 2 8.31135 3.79054 5.90892 0 1 1 0.05715 
1078 1 8.99713 4.38328 6.21362 0 0 0 0.048049 
1040 1 9.38938 4.10385 5.25029 0 0 0 0.0347775 
900 1 8.43448 3.66275 4.99697 0 1 1 0.0298922 
1551 1 8.92949 3.76756 8.73037 0 0 -1 0.0391661 
4319 2 1.19657 2.04178 9.62453 0 0 0 0.0339359 
2475 1 0.229898 0.288609 6.43749 1 1 0 0.0292367 
442 1 0.347179 0.395628 7.4779 0 1 0 0.0497841 
168 1 0.504261 1.19296 6.81864 0 0 0 0.0230937 
4190 2 1.17073 1.46909 7.38553 1 0 0 0.0269497 
434 1 0.403965 1.5383 7.77771 0 1 0 0.0251643 
797 1 3.95483 1.07765 9.47208 0 1 -1 0.0321974 
3388 1 1.43225 0.690437 6.96795 1 1 0 0.0274743 
3524 2 2.04968 0.643708 7.62669 0 0 -1 0.0344086 
679 1 2.56411 0.526488 6.8881 0 0 0 0.0323196 
270 1 3.01768 1.09281 7.66144 0 1 0 0.0544198 
718 1 2.03063 1.43544 7.35658 0 0 0 0.0353515 
646 1 3.28455 1.33019 6.71412 0 0 0 0.0240306 
3828 2 3.10211 0.210876 7.46194 0 0 0 0.0270067 
1726 1 4.14629 0.951918 7.03299 0 0 0 0.0265369 
3212 1 3.61 0.185475 6.63377 1 1 -1 0.0269017 
116 1 3.83686 0.444897 7.88862 0 0 0 0.0298206 
1016 1 4.8946 0.649891 7.76782 0 0 0 0.0389034 
1807 1 5.81515 0.136524 7.35777 0 1 0 0.030795 
3592 2 5.15883 0.869874 6.92824 0 0 -1 0.0297077 
1264 1 5.86769 1.26731 7.42587 0 1 -1 0.0272265 
74 1 4.91625 1.64092 7.41301 0 0 -1 0.0589275 
1121 1 6.56808 0.645035 6.63136 0 0 0 0.0329715 
1013 1 6.68732 0.680663 7.72139 0 0 0 0.0316608 
3899 2 7.32123 0.973629 7.08206 0 1 0 0.0304403 
1900 1 7.67386 0.381556 7.95694 0 1 0 0.0295592 
1166 1 7.35622 1.45736 7.90747 0 0 0 0.0280084 
599 1 6.78684 1.64365 6.93847 0 0 -1 0.0486496 
1986 1 7.62544 0.231413 6.73506 0 0 0 0.0313424 
2562 1 8.35284 3.38207 9.57724 0 0 -1 0.0334007 
545 1 8.24163 0.958031 7.19968 0 0 0 0.0285389 
1621 1 9.25914 1.45197 7.20945 0 0 0 0.0390706 
1452 1 8.93782 0.930041 8.01855 0 1 0 0.0529448 
47 1 1.35523 2.8215 6.4076 0 0 0 0.0487087 
4199 2 0.393296 3.06 6.4695 1 0 0 0.03234 
3065 1 1.28742 1.80141 6.55209 1 0 0 0.0539149 
3041 1 0.84098 2.40343 7.21672 1 0 0 0.0252329 
1603 1 7.56884 4.0312 9.47925 0 0 0 0.0232504 
3139 1 1.9189 2.68048 7.3898 1 0 0 0.0287578 
32 1 2.83054 2.12107 7.57405 0 0 0 0.0836696 
798 1 2.67125 3.16734 6.84899 0 1 0 0.0847382 
4194 2 3.97719 1.87397 6.45472 1 0 0 0.0711144 
984 1 3.34347 2.414 6.73722 0 1 0 0.0540997 
494 1 4.53175 2.51041 6.70747 0 0 0 0.0574792 
3435 1 3.90435 1.87338 7.41218 1 1 0 0.051959 
17 1 3.72214 2.89935 7.55195 0 0 -1 0.0701863 
3835 2 5.34235 2.97076 6.54719 0 0 -1 0.0470099 
1511 1 5.57187 2.2097 6.90899 0 0 0 0.0247262 
636 1 5.00176 2.98055 7.48798 0 0 0 0.0375945 
208 1 6.12343 3.13579 7.00856 0 0 1 0.0224102 
3984 2 5.79423 2.93979 7.84652 0 0 0 0.0566238 
1360 1 6.48435 2.29173 7.6499 0 1 0 0.0251548 
3605 2 6.58865 2.46787 6.78473 0 1 0 0.0337585 
1143 1 7.25626 2.92978 7.15875 0 0 0 0.0256894 
1558 1 7.73281 1.97597 7.05753 0 0 0 0.0249792 
1523 1 8.36673 1.77614 7.92117 0 0 0 0.0293819 
3567 2 8.60949 2.0944 7.19827 0 1 0 0.028853 
2136 1 9.21292 2.56668 6.67386 0 0 0 0.0288666 
1725 1 8.26938 2.86951 7.59759 0 0 0 0.0199475 
1955 1 9.1803 2.35763 7.84671 0 1 0 0.0177515 
216 1 0.514811 4.52023 7.07901 0 0 0 0.0183743 
3349 1 0.762493 3.51595 7.12082 1 0 0 0.0277469 
4166 2 0.279849 4.56487 8.02381 1 1 0 0.0464029 
687 1 1.16404 4.23039 7.84252 0 0 0 0.0680063 
1018 1 2.7449 3.33426 7.87647 0 0 -1 0.0560574 
2641 1 2.40022 4.33384 6.57705 1 0 1 0.0410508 
1090 1 1.78966 3.7385 7.17546 0 0 0 0.0197493 
1246 1 2.46012 4.55813 7.61297 0 0 0 0.0331186 
711 1 3.79418 3.41599 6.54061 0 0 1 0.0358226 
551 1 4.48563 4.32696 6.56642 0 0 0 0.0602854 
3571 2 4.60231 3.38482 6.80429 0 1 0 0.0390981 
638 1 3.28239 4.00146 7.26524 0 0 0 0.0307614 
1095 1 4.44798 3.9699 7.55229 0 0 0 0.0349227 
3145 1 5.34517 3.85909 6.9088 1 0 0 0.0545967 
655 1 6.30478 4.22241 7.48496 0 0 0 0.0172773 
16 1 0.767625 3.96975 9.57357 0 0 -1 0.0453353 
3586 2 8.18385 4.09238 8.88394 0 0 -1 0.0418903 
1059 1 7.32252 3.97724 7.27047 0 0 0 0.0201999 
3634 2 7.51934 3.40184 7.91177 0 0 0 0.029919 
1181 1 6.5882 3.3761 7.92152 0 0 0 0.0240011 
3614 2 9.3748 3.50282 6.51348 0 0 0 0.0537076 
1675 1 9.38416 3.41139 7.37429 0 0 0 0.0249154 
2215 1 8.34337 3.85935 7.78089 0 0 0 0.0171568 
506 1 8.50163 3.66471 6.78858 0 0 -1 0.0183271 
607 1 8.91898 4.61625 7.24846 0 0 1 0.0317944 
3018 1 1.25633 0.841958 7.95813 1 0 0 0.0801188 
88 1 0.409612 0.508848 9.45311 0 0 -1 0.0495928 
310 1 1.40869 0.437447 9.2685 0 1 -1 0.0900299 
3014 1 0.737675 1.4117 8.76484 1 0 -1 0.0702624 
1494 1 8.90375 2.60059 4.99845 0 0 0 0.058175 
1197 1 1.67115 1.49296 9.04076 0 0 0 0.0534647 
3988 2 1.59185 0.136777 8.34974 0 1 -1 0.0462742 
3770 2 2.20389 0.713288 9.35449 0 1 0 0.0367395 
209 1 2.17171 0.776618 8.48462 0 0 0 0.0333535 
3757 2 3.04588 0.268097 8.43964 0 1 0 0.0283038 
741 1 2.59079 1.51636 9.4421 0 1 -1 0.0294832 
700 1 6.92881 3.36291 8.92748 0 0 0 0.0198034 
879 1 4.57194 0.412474 8.78818 0 1 0 0.0217534 
926 1 4.24121 1.29792 8.32268 0 1 0 0.0274186 
1747 1 3.21942 1.0134 8.72503 0 1 -1 0.0211805 
3897 2 9.06468 0.448293 5.17666 0 1 0 0.0866114 
3467 2 5.97441 0.579044 8.11682 0 1 -1 0.0474718 
3874 2 5.80611 1.29129 9.43808 0 1 0 0.0703233 
1577 1 6.06562 0.469967 8.9946 0 0 -1 0.0491413 
1170 1 5.43767 1.12466 8.59843 0 0 0 0.0481113 
801 1 6.41949 1.56059 8.40936 0 1 0 0.0338402 
2199 1 7.99948 3.26309 8.5992 0 0 0 0.0450869 
2384 1 7.0594 0.752636 8.69501 0 1 0 0.0261234 
1256 1 4.55028 4.68715 5.58777 0 0 0 0.0357685 
598 1 1.48306 4.78921 6.99533 0 0 -1 0.0223243 
610 1 5.16888 4.8055 7.57039 0 0 0 0.039015 
930 1 8.09482 1.12097 8.68992 0 1 0 0.0227132 
1000 1 8.88022 0.465627 9.13273 0 0 0 0.0446072 
2988 1 1.21074 3.13535 8.04118 1 0 0 0.0223712 
1414 1 0.223844 2.20277 6.25272 0 1 1 0.0210036 
50 1 1.44155 2.07501 8.09376 0 0 -1 0.0251319 
2702 1 0.298509 2.57379 8.16063 1 0 0 0.0197151 
3155 1 1.0774 2.50695 8.91822 1 0 0 0.0494322 
1192 1 2.83327 1.39478 4.99922 0 0 0 0.0697229 
515 1 2.51341 1.7514 8.44194 0 0 0 0.0575847 
651 1 2.1178 2.73086 8.56757 0 0 -1 0.0243161 
3873 2 2.95018 0.460252 5.03249 0 1 0 0.0318188 
3636 2 3.34397 1.72703 8.27721 0 0 -1 0.0484268 
1139 1 4.50491 2.31508 8.23006 0 0 0 0.0399332 
575 1 3.26747 2.62557 8.45344 0 0 -1 0.0326981 
525 1 3.74995 2.00051 9.08165 0 0 0 0.0286111 
1099 1 4.11268 3.07225 8.99218 0 0 -1 0.0829639 
2173 1 4.80726 1.90583 9.17471 0 0 -1 0.0427764 
589 1 5.50967 2.15231 8.17384 0 0 -1 0.0359665 
3572 2 5.58432 2.36757 9.13639 0 1 0 0.0433084 
1279 1 5.23302 3.03431 8.67307 0 1 0 0.0328047 
3960 2 6.88191 4.53025 9.19377 0 0 -1 0.036545 
83 1 5.37025 4.76914 8.71697 0 0 -1 0.0208796 
1094 1 6.24125 2.66853 8.64146 0 0 -1 0.0675205 
867 1 7.29518 1.73532 9.00116 0 1 0 0.0233905 
1325 1 7.28792 2.53029 8.3059 0 1 -1 0.0517086 
3921 2 6.89485 2.58113 9.29215 0 1 0 0.0282907 
683 1 7.75578 2.58774 9.35687 0 0 0 0.0237405 
4156 2 2.14906 3.99204 9.33414 0 0 -1 0.0622846 
1470 1 9.233 1.53769 8.7876 0 1 0 0.0721839 
588 1 6.01134 2.82851 5.09745 0 0 0 0.0570955 
4216 2 8.95282 3.18909 8.10893 0 0 -1 0.0258263 
3542 2 8.14954 1.99675 8.79362 0 1 -1 0.0379325 
1883 1 8.81046 2.59191 8.83762 0 1 0 0.0213344 
165 1 0.262765 3.69457 8.02283 0 0 0 0.0319631 
4192 2 0.996335 3.83055 8.71874 1 0 0 0.0463899 
509 1 1.48469 4.48653 8.94549 0 0 -1 0.0278095 
2492 1 0.336532 4.49757 8.8812 1 0 -1 0.0483556 
2490 1 1.97835 3.86673 8.35224 1 0 -1 0.0241417 
3914 2 2.84279 4.14537 8.30669 0 1 0 0.0963647 
692 1 2.80206 3.502 8.94115 0 0 0 0.0364768 
950 1 2.58728 4.80117 8.7648 0 0 0 0.0577527 
3086 1 1.57427 3.36068 9.25651 1 0 0 0.0451893 
1174 1 8.37669 4.66959 5.43977 0 0 1 0.0438985 
79 1 3.76423 4.38316 9.12689 0 0 -1 0.0260193 
72 1 3.63637 3.72972 8.25919 0 0 -1 0.0613136 
580 1 4.62253 4.05181 8.58786 0 0 -1 0.0221595 
628 1 3.40219 4.79433 8.13983 0 0 0 0.0695844 
3477 2 4.47353 3.30236 8.17486 0 0 -2 0.0332129 
3464 2 4.68938 4.58732 9.29256 0 0 -1 0.0290393 
1149 1 5.56057 3.78397 8.01084 0 0 0 0.026622 
544 1 4.69898 3.68067 5.03296 0 0 0 0.0361179 
3711 2 6.02995 3.51975 8.68789 0 0 -1 0.0382173 
1204 1 5.60286 3.99697 9.3222 0 0 0 0.0474816 
1135 1 6.38138 4.31677 8.56326 0 0 0 0.0220728 
708 1 7.40198 4.16006 8.40504 0 0 0 0.0229239 
3030 1 0.0981824 3.82415 6.21976 1 0 0 0.0299834 
547 1 1.65446 4.74091 5.87489 0 0 -1 0.0425849 
37 1 2.95155 2.51209 9.47651 0 0 -1 0.0382158 
3712 2 6.98219 4.74341 7.88007 0 0 0 0.0382506 
3766 2 7.51255 3.17038 4.87172 0 1 0 0.071825 
1348 1 3.28032 2.45393 4.92314 0 1 0 0.0317486 
3900 2 5.19824 2.37783 4.8747 0 1 -1 0.0355093 
3050 1 0.19787 3.25292 8.99337 1 0 0 0.0228796 
2026 1 8.4459 4.75888 8.38713 0 0 0 0.0373752 
4141 2 5.73433 0.0764585 4.83503 1 1 -1 0.0452349 
1510 1 3.04926 0.564977 9.62436 0 0 -1 0.0239005 
1238 1 5.44976 4.59903 4.95344 0 0 0 0.091595 
213 1 0.950759 5.55831 0.394665 0 0 1 0.0377767 
3293 1 0.309157 5.9556 1.25924 1 1 0 0.0421662 
769 1 1.35683 6.15216 1.59971 0 0 0 0.104592 
4074 2 1.52123 5.16937 1.19305 1 -1 1 0.103445 
2193 1 9.50302 8.89493 4.58791 0 0 0 0.0243269 
3643 2 8.51306 9.14087 4.37731 0 0 0 0.0859264 
3128 1 1.97658 5.8002 0.802796 1 0 1 0.0861237 
657 1 2.93517 6.13722 0.95994 0 0 1 0.039423 
181 1 2.87954 5.05184 0.946243 0 0 0 0.0899451 
1962 1 9.64034 8.03862 2.82665 0 0 0 0.0240755 
973 1 3.90317 5.50035 1.02645 0 1 1 0.0332525 
319 1 0.775224 7.401 0.132287 0 1 0 0.0633716 
3068 1 0.520316 4.93932 3.73666 1 0 0 0.0443696 
686 1 6.87983 6.92008 0.109845 0 0 1 0.0425329 
3001 1 4.33484 7.54747 0.0996892 1 0 0 0.0217669 
4275 2 3.68653 6.16821 1.58201 1 0 0 0.0822719 
1201 1 5.93516 5.54263 0.593407 0 0 1 0.0365177 
1586 1 5.73091 6.1318 1.58678 0 0 0 0.0509564 
3143 1 0.195448 7.89541 0.834766 1 0 0 0.0251897 
499 1 4.9489 5.74189 0.816328 0 0 0 0.097908 
38 1 5.67003 6.55239 0.467567 0 0 0 0.0389264 
3904 2 7.31126 5.55305 0.846244 0 1 0 0.0398791 
1150 1 6.6452 5.27885 1.36083 0 0 1 0.0335857 
97 1 6.69362 6.1971 0.849356 0 0 0 0.053403 
1480 1 7.90081 5.00493 1.23299 0 0 1 0.0351786 
658 1 7.46344 6.02523 1.54146 0 0 0 0.0336011 
1720 1 8.03724 5.63671 0.365658 0 0 1 0.0617917 
1370 1 9.04393 5.3516 0.519846 0 0 1 0.0354574 
2694 1 8.54034 6.00998 1.23904 0 0 0 0.0203603 
3890 2 8.88063 5.2191 1.43866 0 1 0 0.0342149 
579 1 5.39672 5.0521 1.53625 0 0 0 0.0394933 
2187 1 0.267432 6.55522 0.458257 1 0 1 0.0553413 
3132 1 1.29856 6.57684 0.649507 1 0 1 0.087806 
3327 1 0.649388 7.03961 1.41779 1 1 1 0.0341182 
1654 1 1.39074 7.6448 0.991333 0 0 1 0.0357002 
3535 2 1.82831 9.63097 3.62153 0 0 0 0.0919976 
3983 2 2.23192 6.32945 1.4603 0 0 0 0.0329858 
234 1 2.31117 7.03151 0.806267 0 0 0 0.0332586 
4218 2 2.93518 7.67145 0.930661 1 0 1 0.0452226 
919 1 3.13033 6.99867 1.52298 0 0 1 0.0438198 
608 1 4.11009 6.67281 0.99432 0 0 1 0.0605267 
898 1 3.36415 7.04739 0.407736 0 0 1 0.0300561 
327 1 3.98959 7.76813 1.0547 0 0 0 0.0309271 
1242 1 0.184676 7.67552 2.44011 0 0 1 0.0434956 
1069 1 6.23244 7.29204 0.890612 0 0 0 0.030032 
3725 2 5.69789 7.92607 1.35026 0 0 0 0.0339439 
2968 1 5.02369 7.25669 0.925066 1 0 0 0.0387512 
1001 1 5.47323 8.06457 0.38443 0 0 0 0.0500872 
645 1 7.65207 9.5211 0.705847 0 0 1 0.0559616 
3554 2 4.80208 8.13861 1.05841 0 0 0 0.0578816 
4143 2 7.48134 9.53403 3.2849 0 0 0 0.0400742 
1041 1 7.81788 6.66605 0.696238 0 0 0 0.0602688 
3810 2 7.06798 6.91936 1.04665 0 0 1 0.0245783 
1926 1 7.25435 7.74465 0.7061 0 0 1 0.0264299 
3710 2 7.86846 8.03449 1.41348 0 0 1 0.0308624 
411 1 1.27018 9.5764 2.74491 0 0 1 0.0374611 
514 1 8.88749 6.86856 0.667656 0 0 0 0.0361559 
1729 1 8.25507 7.62903 0.723223 0 0 1 0.046122 
4310 2 8.43967 6.82795 1.37675 0 1 -1 0.0329126 
1477 1 9.60722 7.73913 1.11895 0 0 1 0.0583019 
2166 1 9.69393 9.6327 3.56581 0 0 1 0.0346341 
2625 1 0.939212 8.52464 0.536788 1 0 1 0.0530381 
3661 2 0.916313 9.45387 0.425117 0 0 -1 0.0500702 
2624 1 9.02988 9.54677 1.82249 0 0 0 0.0318736 
1522 1 3.64332 6.08237 0.166918 0 0 0 0.0444481 
648 1 1.68371 8.53801 1.35835 0 0 1 0.0254311 
109 1 2.25695 8.14221 0.641722 0 0 0 0.0189908 
2990 1 2.94485 9.09482 0.443987 1 0 0 0.0471706 
3609 2 2.27172 9.0127 1.02528 0 0 1 0.0466668 
66 1 1.91244 9.17767 0.160697 0 0 0 0.0223384 
4057 2 4.63312 4.95459 1.08929 1 0 1 0.0450759 
725 1 3.48422 8.16872 0.219521 0 0 1 0.0190113 
221 1 3.26518 8.42744 1.3296 0 0 1 0.0340104 
112 1 3.58773 9.41709 1.31717 0 0 0 0.0237201 
3559 2 3.77262 8.81186 0.720985 0 0 0 0.0326089 
3020 1 4.42315 8.68961 1.54155 1 0 0 0.0284348 
1465 1 4.4604 8.53806 0.352744 0 0 1 0.0321528 
623 1 6.06925 8.96748 0.247786 0 0 1 0.041951 
376 1 5.38131 8.75029 1.16554 0 0 0 0.0208557 
4144 2 5.26384 9.26026 0.337641 1 0 0 0.0334929 
362 1 6.34476 8.3698 1.07056 0 0 1 0.0222618 
3519 2 4.99796 9.40693 1.55282 0 0 0 0.0548358 
3538 2 5.13713 7.22063 0.0605277 0 0 0 0.0349778 
3652 2 6.84737 9.20163 0.884818 0 0 0 0.106459 