LAMMPS data file via write_data, version 12 Dec 2018, timestep = 6600

4320 atoms
2 atom types

0.0000000000000000e+00 1.9309999999999999e+01 xlo xhi
0.0000000000000000e+00 1.9309999999999999e+01 ylo yhi
0.0000000000000000e+00 9.6549999999999994e+00 zlo zhi
1.9310000000000116e-01 0.0000000000000000e+00 0.0000000000000000e+00 xy xz yz

Masses

1 1
2 1

Atoms # atomic

1232 1 2.5127195262803126e-01 6.5650236868425837e-01 1.2085146789285039e+00 0 0 0
3427 1 1.1627347422515817e+00 3.8794636033413304e-01 6.3667230212748971e-01 1 1 1
1106 1 6.1162038893766701e-01 1.4255605541814143e+00 2.9740758820232222e-01 0 0 0
191 1 1.2264138418817525e+00 1.0012149830141024e+00 1.4042358169212705e+00 0 0 0
1189 1 1.9177290486972294e+00 1.1089999945181468e+00 4.2005021626557171e-01 0 0 0
3040 1 2.7748415348214315e+00 3.5279243325563003e-01 9.8393020327275571e-01 1 0 0
3774 2 2.8806862220735310e+00 1.0960770410529364e+00 6.0453929408661633e-01 0 1 -1
3820 2 8.3273483666871382e+00 1.1685045287015861e-01 1.8413081452700444e-02 0 1 1
772 1 4.3629452960993351e+00 9.5789943958696208e-02 1.9439611745334301e-01 0 1 0
1071 1 3.7857014557788422e+00 6.7767196922599482e-01 9.4649193129109233e-01 0 0 0
80 1 3.3090356227766802e+00 1.5098289696791087e+00 1.4905796929489126e+00 0 0 0
3258 1 1.7354384199783426e-01 2.3501880075598749e-01 3.6678160008468774e+00 1 1 0
870 1 5.8106425025327830e+00 6.8865738722648173e-01 4.0698646873734451e-01 0 1 1
3953 2 5.9535306944055444e+00 6.2930179572088352e-01 1.3795289146076681e+00 1 0 -1
1224 1 6.2675895810003786e+00 1.4173814873699628e+00 9.3786729266703561e-01 0 0 1
766 1 4.8324039223024604e+00 6.9823365742523080e-01 8.9178299004606232e-01 0 1 0
1627 1 6.5175882228805566e+00 4.3348771399127806e+00 3.7269246499597339e+00 0 0 1
572 1 6.6510861556615941e+00 3.8040803673671131e-01 9.4096431781679890e-01 0 0 0
3848 2 7.1402605408538387e+00 1.1747862219205234e+00 8.2100535929881668e-01 0 0 1
1215 1 7.6849678062206070e+00 6.1027196488567959e-01 1.0817623863546142e+00 0 0 1
1300 1 6.9884262420608172e+00 1.1691375570300877e+00 1.6854276379131730e+00 0 1 0
994 1 8.7188616873245959e+00 3.3630764196800160e+00 3.4000309636595389e+00 0 0 0
1330 1 8.6448215302163902e+00 9.0455136004212178e-01 8.2686332285821906e-01 0 1 0
1513 1 9.6874340346296020e+00 4.6471172068621929e+00 4.3963436591311016e+00 0 0 0
1074 1 9.5622396082801213e+00 8.5858987676940268e-01 1.1739210737675494e+00 0 0 0
2055 1 7.8876657836856934e+00 1.6658059014509152e+00 1.2544891673016354e+00 0 0 0
691 1 4.9734176406743318e+00 2.8851963187324201e+00 2.4357024283426936e-02 0 0 1
3019 1 3.8135814300601240e-01 1.7491471697294658e+00 1.3459267462093791e+00 1 0 0
3546 2 5.9635435315456431e-01 2.2697160388741247e+00 6.8481652840816987e-01 0 1 0
2959 1 1.0163806623601650e+00 2.9540352561205947e+00 4.1927168851267654e-01 1 0 0
538 1 1.4067376060914405e+00 1.9481542899057482e+00 8.3851224376219891e-01 0 0 0
606 1 9.1485159401573946e-01 2.6624795113391433e+00 1.4535865659247797e+00 0 0 1
129 1 7.0807019704936558e-01 2.6287858712054883e+00 4.6174060416791800e+00 0 0 0
3495 2 5.2349990805069870e+00 9.6271931028589525e-02 3.5321641018073208e-01 0 0 1
1103 1 8.4061919166772210e+00 1.1923811857723442e-01 2.8154413797148683e+00 0 0 0
541 1 2.4248573004474143e+00 1.9350327278187132e+00 7.7375973519232466e-01 0 0 0
429 1 1.8592215289895240e+00 2.9447446350569826e+00 1.0088613115759821e+00 0 1 1
1392 1 3.4784197772436651e+00 3.5065437756207101e+00 1.2704426822165890e-01 0 1 1
1254 1 3.1021987070751478e+00 2.7335630455690287e+00 8.9122620250149298e-01 0 0 1
1932 1 4.4622081458906200e+00 1.5745056412200105e+00 6.4306049189353476e-01 0 1 1
719 1 3.4063955236407684e+00 1.7400677441692569e+00 4.6877663088776605e-01 0 0 0
698 1 4.0452874894185822e+00 2.3653457759387004e+00 1.3068669321968187e+00 0 0 1
611 1 3.9976195029466055e+00 2.6028382013050448e+00 3.0847217014335215e-01 0 0 1
3483 2 4.9352389260566163e+00 2.3803154502788502e+00 7.5765798652309213e-01 0 0 0
4 1 5.1434944614033853e+00 1.8640145882374570e+00 1.4308700849567986e+00 0 0 0
2120 1 5.4952546690741437e+00 1.8061479802094984e+00 3.5877718579962253e-01 0 0 1
1229 1 5.8553296237035894e+00 2.5844945244517348e+00 9.3612025132166954e-01 0 0 0
703 1 4.8998975693358249e+00 2.9786653481219503e+00 1.4032838023527636e+00 0 0 0
3928 2 6.0300398732681586e+00 2.0563519702678281e+00 1.5886958647883800e+00 0 1 0
3772 2 8.0388948648200689e+00 4.7120962786684233e+00 4.1489960575224627e-01 0 1 1
3490 2 6.5800512324274170e+00 2.3869222374079984e+00 5.1163079202211370e-01 0 0 1
993 1 7.2402248217914043e+00 1.9002437550407529e+00 3.8560129588432918e-01 0 0 0
1247 1 6.9199712599802146e+00 2.3551650849113051e+00 1.3690600060990554e+00 0 0 1
1863 1 7.1245217661601110e+00 3.0448189993110755e+00 4.2232569446717205e-01 0 1 0
1565 1 9.3673159599353042e+00 3.5556885090953938e+00 4.2440909408833098e+00 0 0 0
1573 1 7.9981583075874658e+00 2.6534568767760569e+00 8.7102109005178974e-01 0 0 0
1339 1 8.9610083759313550e+00 1.9756126774349982e+00 8.0057658045297964e-01 0 1 0
1946 1 8.8981105593715455e+00 3.0738755185462443e+00 7.8303048997283131e-01 0 1 0
4090 2 8.2731775258981202e+00 3.2445021765606392e+00 1.4504139749963469e+00 0 0 0
2171 1 8.7633140875794329e+00 2.4961773748819596e+00 1.7001106011876019e+00 0 0 0
249 1 2.0599208891852565e+00 5.5740530989718595e-02 2.7717555974581876e-01 0 1 0
1193 1 7.8625203897883289e-01 3.6087578365598829e+00 1.1957753196341461e+00 0 0 0
217 1 8.7462035686623041e-01 4.6828721006385088e+00 8.5740277676453713e-01 0 0 1
3157 1 1.6181646849963682e+00 3.9559854068703086e+00 5.8011775904818330e-01 1 0 1
146 1 2.4328575109741735e+00 3.4199283494909931e+00 2.5837417074181834e-01 0 0 0
3186 1 2.9974460328807573e+00 3.9406653580899693e+00 1.0869922096845552e+00 1 0 1
1196 1 2.1221043357411147e+00 4.5151004323225559e+00 1.3965057100356875e+00 0 0 1
2985 1 2.8073513902592495e+00 4.4340171641707018e+00 1.0202372505367871e-01 1 0 0
825 1 7.8908076964242140e+00 3.5937803182711345e+00 4.0711302684700987e+00 0 1 0
3620 2 8.8146489527243972e+00 4.5081376292614292e+00 4.7601358529539954e+00 0 0 0
11 1 3.8746412460556758e+00 3.4364572829774396e+00 1.1823334091055397e+00 0 0 0
255 1 3.9415796611294294e+00 4.3995993045779382e+00 5.8229278964563469e-01 0 0 0
618 1 3.6308027612641411e+00 4.7477131305607490e+00 2.7314159791279757e+00 0 0 1
1223 1 4.7553254666390590e+00 4.0566771404623427e+00 1.0953277226093976e+00 0 0 1
4147 2 4.5404416379963859e+00 3.2262941871751498e+00 6.7117384325434870e-01 1 1 0
616 1 5.5257510998271231e+00 3.5233020006066833e+00 6.0270739479688373e-01 0 0 1
1176 1 6.1036975442213768e+00 4.4849743261427601e+00 9.0894263365869543e-01 0 0 1
30 1 5.2096712814809463e+00 4.6946578089103275e+00 3.9073848339772393e-01 0 0 0
2004 1 6.4267339129670438e+00 3.5254810057802750e+00 1.1366917772468614e+00 0 0 0
3794 2 7.1179874134755110e+00 3.9035216680458835e+00 7.0424286131283165e-01 0 0 0
462 1 7.1175479976685425e+00 4.2800120615257624e+00 1.4610265688926347e+00 0 1 0
1034 1 7.4271499325820329e+00 3.2321337601906461e+00 1.6279239459452848e+00 0 0 0
1382 1 6.5214248264948980e+00 3.9871506939252268e+00 1.1369498101454777e-01 0 0 1
3594 2 1.5542253193094296e-01 4.7601172569707888e+00 2.0071981925507214e+00 0 0 1
1501 1 7.9178636577388870e+00 3.7352677475041456e+00 8.1481770395148800e-01 0 0 0
1220 1 8.7213164006543415e+00 4.4018915068274334e+00 9.5337857137110127e-01 0 0 1
4018 2 8.9629341728306944e+00 3.8129124948073891e+00 4.0896924137678980e-01 0 0 -1
3980 2 5.5514897557221254e-01 1.1689275696409991e+00 1.9283362999113551e+00 1 0 1
3104 1 5.3196888169462941e-01 9.4112480382034358e-01 2.8097994653593465e+00 1 0 0
3013 1 7.6549243643039555e-01 2.5673011842161070e-01 2.0019648834850372e+00 1 0 0
539 1 9.6551411315759079e+00 3.8184201905993760e+00 9.8473823577358355e-01 0 0 0
256 1 2.2372724226140019e+00 1.1790034422940014e+00 1.4512036568573528e+00 0 1 0
3190 1 1.6317095836201074e+00 7.2088945204814447e-01 2.3497637931875257e+00 1 0 1
3217 1 3.1351745079927880e+00 9.4838921428533207e-01 2.4425125874620068e+00 1 1 0
340 1 2.6153330976915963e+00 1.6033575832413008e-01 2.1760051451280540e+00 0 1 0
3573 2 3.2794754807865529e+00 5.4722408327273075e-01 1.6333017216723313e+00 0 1 3
3164 1 3.1378046940292910e+00 3.6672199310701697e-01 3.2356946429135625e+00 1 0 1
661 1 4.3388797072593643e+00 1.2347516905445681e+00 1.6905549520819478e+00 0 0 1
914 1 3.9603616994098676e+00 2.1890211104435039e-01 2.1000198281000868e+00 0 1 1
486 1 4.0677622575586785e+00 9.2224348108787380e-01 2.9865174698424690e+00 0 0 0
183 1 5.0014089107429927e+00 1.3439148336406097e+00 2.5045795555426862e+00 0 0 0
299 1 5.2072300986625066e+00 5.0487984790799934e-01 1.8099471529267375e+00 0 1 0
1770 1 5.8944320222600117e+00 1.2569091237930197e+00 1.9399444455070747e+00 0 1 0
1033 1 5.7177558987634356e+00 4.9375219004920223e-01 2.7840785796782153e+00 0 0 0
3683 2 5.8337510619495250e+00 1.2872709342615418e+00 2.8208947672344715e+00 0 1 0
4080 2 4.7493166877412607e+00 4.9375029940812049e-01 2.6424396750853298e+00 1 0 0
1971 1 6.5353509623913126e+00 1.6681054516997740e-01 1.9244568793429977e+00 0 1 0
2016 1 6.6641559104078238e+00 1.0698673109751449e+00 2.7049427482820234e+00 0 0 0
806 1 7.5915631948573052e+00 3.2312771736559331e-01 2.1099376452753651e+00 0 1 0
1462 1 7.6526770357201928e+00 7.8102874795160104e-01 3.0350042573967930e+00 0 1 1
1423 1 6.8274801961388230e+00 1.3915727634770461e-01 3.0588296209988499e+00 0 1 1
1571 1 7.8517418521817604e+00 1.3171957824447784e+00 2.2077573120242531e+00 0 0 0
716 1 2.6483111840935498e+00 4.7334470749899538e+00 2.3649890076712432e+00 0 0 1
1957 1 9.5379470032796370e+00 1.9830247231346285e+00 3.0938060026120704e+00 0 1 1
635 1 8.5997865802773017e+00 4.0722321578279047e-01 1.7530113752865717e+00 0 0 1
890 1 8.7897349595400751e+00 1.1966398254506005e+00 2.7928440096522653e+00 0 1 1
1830 1 8.7703595098356644e+00 1.4602127222160899e+00 1.7204732903480362e+00 0 1 0
4103 2 4.3236629429166671e+00 3.4984129275725416e-03 4.7558907387419787e+00 0 0 0
4133 2 1.2603135404261219e+00 4.7723959105947760e+00 3.3702376268270275e+00 1 1 0
2949 1 1.2702248110073970e+00 1.7073491284051030e+00 2.1148804273119830e+00 1 1 1
4245 2 4.3987909384038565e-01 2.2750396508353794e+00 2.1972614972913331e+00 1 0 0
315 1 6.8039674614666446e-01 1.9744096985341180e+00 3.0067432421805096e+00 0 1 0
2495 1 8.8850648763186746e-01 2.8813048980906406e+00 2.5898520079864813e+00 1 0 0
29 1 2.3512401545817467e+00 1.5834620002890958e+00 2.4838088600898685e+00 0 0 0
4302 2 1.6405947355558812e+00 2.0429844833650872e+00 2.8383940387932061e+00 0 1 -1
4225 2 1.8061112965530830e+00 2.0503006998154896e+00 1.5693801866012140e+00 1 0 1
1036 1 2.7350623276025221e+00 2.2478848681293790e+00 1.6965294361701539e+00 0 0 0
555 1 1.8353238694337477e+00 2.6855779107233433e+00 2.1801497643139442e+00 0 0 0
42 1 2.7574331464295008e+00 2.5704755005837803e+00 2.6950405884338284e+00 0 0 0
1115 1 2.6032246510503754e+00 3.2600563280688766e+00 1.7901365129954430e+00 0 0 0
1047 1 4.6012790738083522e+00 2.4197684617912918e+00 2.2593697097246781e+00 0 0 0
3124 1 3.7407268773047613e+00 1.8205914550718085e+00 2.3711160414282353e+00 1 0 1
505 1 3.5640224457131988e+00 2.8406099454328135e+00 2.1055431858720013e+00 0 0 0
3647 2 3.5768604960354122e+00 2.3956166990495200e+00 2.9487410689807629e+00 0 1 1
677 1 4.2990409664636786e+00 2.9998405393389609e+00 3.0931424635943330e+00 0 0 1
1435 1 5.5817598476907859e+00 2.1775007814044312e+00 2.4000116895835228e+00 0 1 0
3612 2 6.1277289170001881e+00 2.7319641602102149e+00 2.7627886906834540e+00 0 0 1
57 1 6.0564439615637244e+00 3.0080990658291724e+00 1.9081369137484827e+00 0 0 0
1068 1 5.3099727427682382e+00 3.2095216836994274e+00 2.5669042275106411e+00 0 0 0
1387 1 6.2946562169124372e+00 1.9729090451905262e+00 3.1924270977947806e+00 0 1 0
1198 1 6.5473891922477936e+00 2.0109420470952286e+00 2.2180159011084455e+00 0 0 1
1214 1 7.3535027864822382e+00 1.9387537889336992e+00 2.8908126544064245e+00 0 0 0
1580 1 6.9332919790816199e+00 2.8921836567320391e+00 2.5258340118879201e+00 0 0 0
1003 1 7.7340919527536105e+00 2.3076925632026470e+00 1.9841902582601278e+00 0 0 0
1295 1 1.0321352453976320e+00 9.7296226264987309e-02 3.0307508832264003e+00 0 1 0
3676 2 9.4790963780597792e+00 2.0705199482264360e+00 2.1760948921474674e+00 0 0 -1
1485 1 8.5549607243404964e+00 2.2312610451479973e+00 2.8099226996401385e+00 0 0 -1
2307 1 9.2447697038831649e+00 3.0803462274443381e+00 2.5435238557122535e+00 0 1 0
694 1 7.0561421331432769e-02 4.7935918174061500e+00 1.6627812099344830e-01 0 0 1
4209 2 1.2673404880068933e+00 4.3269534730567809e+00 1.6305496071704049e+00 1 0 1
587 1 6.1368841809525554e-01 4.0383590458763559e+00 2.1527895506577104e+00 0 0 0
1433 1 1.3364562435872978e+00 3.8556946542938113e+00 3.0947692654360344e+00 0 0 1
593 1 1.5896770307834380e+00 4.7222823038884405e+00 2.3444133653313277e+00 0 0 0
1240 1 1.5145112258198232e+00 3.5848998953777405e+00 1.9225730027926518e+00 0 0 1
4197 2 3.0107164775497997e+00 4.2124876247064735e+00 2.9763127951690409e+00 1 0 0
3540 2 2.2194512205743258e+00 4.0482565218665201e+00 2.1276549230970421e+00 0 0 0
2595 1 2.3996515942601269e+00 3.5800279866376972e+00 2.8051288080452421e+00 1 0 0
4171 2 2.2082255745573848e-01 3.4431656236988828e+00 2.4249801753429803e-01 1 0 0
695 1 3.2569793526344224e+00 3.8833361033440394e+00 2.1869775649606344e+00 0 0 1
2982 1 4.3601278472029374e+00 3.6428973294377696e+00 2.1006906084012686e+00 1 0 0
563 1 4.3486032163623554e+00 4.1141232163597303e+00 3.1259981786778974e+00 0 0 0
1442 1 3.9180291448112885e+00 4.6314330679833873e+00 1.6384210105275250e+00 0 1 1
1100 1 6.2279691902891408e+00 4.6453608296051359e+00 2.1501792064826786e+00 0 0 0
684 1 6.6036659373659852e+00 1.3642007615702523e+00 4.7495033354369003e+00 0 0 0
13 1 4.7762167830143474e+00 4.6207339394018874e+00 2.2339502139174097e+00 0 0 0
997 1 5.5499973652334518e+00 3.9516979694798140e+00 1.7998944159933092e+00 0 0 0
1420 1 6.2724160358681331e+00 3.7437713374339245e+00 2.8110119873034254e+00 0 1 1
3478 2 6.7887043558382167e+00 4.5165311950431839e+00 2.9112434278387886e+00 0 0 0
4017 2 6.6653621796915417e+00 3.7107884883684781e+00 2.0074440620144638e+00 0 1 0
887 1 7.2871513482053105e+00 3.9212206843735045e+00 2.5511863499363714e+00 0 1 1
3951 2 7.9443813575331310e+00 3.7375580248879134e+00 3.1622479278618374e+00 0 0 1
1277 1 8.1588649900075758e+00 3.1763196980199204e+00 2.4613235057319374e+00 0 1 0
649 1 8.1124005190349493e+00 4.1602110345949646e+00 1.8508867254950609e+00 0 0 1
709 1 8.9932366478093098e+00 3.5942902053320340e+00 1.7047833294458823e+00 0 0 0
1009 1 8.1973038583544877e+00 4.5051853750269908e+00 2.7910999580003790e+00 0 0 0
3742 2 8.7657931796502133e+00 3.7819909885508505e+00 2.5134118371459961e+00 0 0 1
2638 1 8.9957494062794794e+00 4.5698928265446623e+00 2.1387720384448974e+00 0 0 1
1486 1 9.4680265095933347e+00 2.9994602666866904e-01 2.3953826752259970e+00 0 0 0
351 1 1.9024319675782573e+00 1.5039682876260771e-02 1.4176521968763260e+00 0 1 0
1066 1 1.5469810994016233e+00 1.3073917657286016e+00 3.1715511674797092e+00 0 0 0
612 1 6.2457449923038844e-01 1.2151865757392417e+00 3.8313593046086569e+00 0 0 0
214 1 1.2432888870151302e+00 3.7041975570841557e-01 4.0613331677864517e+00 0 0 0
1210 1 8.7514341064169834e+00 4.3599009222489338e+00 3.8032941855295168e+00 0 0 1
14 1 2.0761931925879336e+00 4.7087731818358020e-01 3.3014731981739311e+00 0 0 0
4131 2 2.6143166829533393e+00 1.1431963449087570e+00 3.2175474358765319e+00 0 1 0
2699 1 9.1650047056758659e+00 5.7366743605566158e-02 4.1464151767573415e-01 0 0 0
2954 1 1.9565356116646169e+00 1.1510879557936780e+00 4.1745479692355580e+00 1 0 0
758 1 3.0100739495912512e+00 1.0499673394032809e+00 4.0839820840224901e+00 0 1 0
1460 1 4.7211133175036881e+00 8.2409248859207052e-01 4.5512816507632028e+00 0 1 0
115 1 3.9290389064064972e+00 3.9867575501222274e-01 3.9174520923856724e+00 0 0 0
3476 2 4.5156866401349323e+00 1.1948158041891683e+00 3.7718407612500040e+00 0 0 0
3330 1 3.9095662380672525e+00 1.6793719800475986e+00 4.2551880581337649e+00 1 1 0
991 1 4.9689448629090736e+00 4.4333872075739145e-01 3.5400483102443685e+00 0 0 0
1910 1 9.4465103891905304e+00 4.0995519848204918e+00 2.9938954680928433e+00 0 1 1
704 1 5.4682168865779790e+00 1.3645664110046181e+00 3.6225925782369335e+00 0 0 0
631 1 5.7288805906861127e+00 8.0313325316644812e-01 4.4282150201151191e+00 0 0 1
659 1 6.4278888727515557e+00 1.0261483129195104e+00 3.7206909029001638e+00 0 0 1
3653 2 7.1645311857306524e+00 1.2887031668426079e+00 3.4149586095068272e+00 0 1 -1
1536 1 7.4349492218936399e+00 8.9221259205017955e-01 4.1352797643615551e+00 0 0 0
1109 1 6.6523828005557348e+00 2.6725713354670144e-01 4.3975051624599644e+00 0 0 -1
3801 2 7.4735202206312810e+00 2.3555164045184207e-01 4.6102989217970398e+00 0 1 1
41 1 3.5558170848480430e+00 3.4527246915263170e+00 4.5364660143449242e+00 0 0 0
1127 1 5.6533852761850651e+00 4.6770294918465147e+00 3.0172554781676530e+00 0 0 1
1623 1 8.2619038098767472e+00 4.1382223482938008e-01 4.6866211288433108e+00 0 0 0
1271 1 8.5207052056560091e+00 7.5037442783395325e-01 3.7538090570221510e+00 0 1 0
2133 1 9.2471544025389800e+00 1.0292032945600849e+00 4.5686006435920161e+00 0 0 0
4039 2 8.9799279323440846e+00 1.5240418665803632e+00 3.6372872988029759e+00 0 1 1
2140 1 7.0813781717439257e+00 3.4856971935692140e+00 3.4936293456096870e+00 0 0 1
1147 1 1.2736183559240488e+00 2.0607397842224193e+00 3.9565950265734378e+00 0 0 1
2579 1 7.1080512899953952e-01 2.9621187486229128e+00 3.6499451847126863e+00 1 0 0
2273 1 6.7457116142069564e+00 1.0220582971647616e+00 3.2827923744991549e-03 0 1 0
3012 1 1.7737782373350222e+00 2.7707448175630214e+00 3.3342488197343494e+00 1 0 0
1107 1 1.6491579689345588e+00 3.1802247831246984e+00 4.2854456868509052e+00 0 0 0
8 1 2.3134127216057685e+00 1.9109431125745686e+00 3.5519122106498364e+00 0 0 0
3062 1 2.2448680167916208e+00 2.2481977662129182e+00 4.5693858606264515e+00 1 0 0
4064 2 3.0496889708888926e+00 1.9476622445293701e+00 4.1324733179416206e+00 0 1 1
1844 1 2.6938761799900508e+00 3.0982310000059812e+00 3.9048089474736245e+00 0 0 1
2056 1 7.5436568206782617e+00 4.4151344165374633e+00 3.5222067753547410e+00 0 0 0
1180 1 3.3296576334399783e+00 1.5963176250700095e+00 3.3105463043742516e+00 0 0 0
26 1 4.3264637227066167e+00 1.9414824736918046e+00 3.3250151934017613e+00 0 0 0
3734 2 4.6013497487424102e+00 2.6934577107277189e+00 3.8483949486829943e+00 1 0 0
2554 1 3.6328056069836792e+00 2.6382714322744847e+00 3.8530049266186825e+00 1 0 0
89 1 4.8699780485345876e+00 1.9425807440370058e+00 4.2215419797924039e+00 0 0 0
1618 1 5.2874638558126872e+00 2.4372655249717456e+00 3.3587280612451287e+00 0 0 1
69 1 5.9353236615438396e+00 2.1168722388363772e+00 4.2345900516713053e+00 0 0 0
1528 1 5.3440233909599248e+00 2.9925937349346405e+00 4.2542161442682316e+00 0 0 0
1102 1 6.1429380224363461e+00 3.0990598517605257e+00 3.6466915826361403e+00 0 0 0
3925 2 6.9418410844228990e+00 2.6016029711184929e+00 3.3456191921725700e+00 0 1 0
124 1 7.1095161461319272e+00 1.9448799264048053e+00 4.0272744946622572e+00 0 0 0
160 1 6.8385753405764387e+00 2.9234917637212012e+00 4.3075690682962637e+00 0 0 0
1488 1 7.9352031070138853e+00 2.4889116581200637e+00 4.5609161910403024e+00 0 0 0
521 1 7.7953850397144420e+00 2.7604944454136513e+00 3.4313743289697807e+00 0 0 0
1140 1 7.0943587818749032e+00 4.7890901146538081e+00 4.6478480933010602e-01 0 0 1
1905 1 8.3537246958508415e+00 1.5485806967060383e+00 4.6050847106202859e+00 0 1 1
1202 1 8.1174233600462085e+00 1.6548282984741143e+00 3.5688707205258154e+00 0 0 1
4048 2 8.5546376134104367e+00 3.1626592826864295e+00 4.2656076363823514e+00 0 1 0
3677 2 9.2036392540103389e+00 1.8967368480541198e+00 4.5302553292944792e+00 0 1 1
2489 1 8.8774488413767134e+00 2.4197268815439159e+00 3.8911262143359684e+00 0 0 0
296 1 4.3674399812650790e+00 2.6933609752697656e+00 4.7318794935254243e+00 0 1 0
2634 1 2.9126955434374102e-01 3.9314181734894236e+00 3.4671973146569606e+00 1 0 1
1079 1 6.4140743430950675e-01 3.7730127963160354e+00 4.5928808672401935e+00 0 0 0
136 1 1.4279986292037421e+00 4.2799996323489280e+00 4.0718271352017767e+00 0 0 0
853 1 2.4593920904337008e+00 1.6793002068431859e-01 4.3894950074541166e+00 0 1 0
3138 1 2.4135096750152174e+00 4.1197613123397039e+00 4.2820337461809119e+00 1 0 1
3615 2 2.1066694217628918e+00 3.6701359763191981e+00 3.6346371965479456e+00 0 0 0
3071 1 2.1736341610496575e+00 4.4986804914004450e+00 3.3255728996656440e+00 1 0 0
3204 1 1.4841545867896450e-01 1.6827889038917556e+00 4.7493229215711104e+00 1 0 1
2998 1 4.4349389965224795e+00 3.5196740413185643e+00 4.0088208754154504e+00 1 0 0
291 1 2.4370147283556015e-01 6.4823788542156735e-01 4.5865632068318769e+00 0 0 0
49 1 4.9061056890462016e+00 4.6699806282554990e+00 3.8575731089703904e+00 0 0 0
1031 1 3.3573599689087961e+00 3.3865271991219226e+00 3.1065570256421893e+00 0 0 0
192 1 4.1321775250751394e+00 4.4398565901731404e+00 4.6212498525470522e+00 0 0 0
3201 1 3.4122092582604693e+00 4.2634582555343714e+00 3.7969857851522644e+00 1 0 0
4214 2 9.1198931437296178e+00 2.2600389318316227e-01 3.2522308037620284e+00 1 0 1
1195 1 5.3306575700339085e+00 3.7701396417617170e+00 3.4238386503553260e+00 0 0 1
2394 1 9.4037816685338154e+00 1.1907174845901658e-01 4.1007631537397202e+00 0 1 0
3732 2 5.0866477791422451e+00 3.9475214400485141e+00 4.3547702510915789e+00 0 0 0
3606 2 6.3613311595459612e+00 4.5391627102655496e+00 4.5829877173444968e+00 0 0 0
3781 2 5.2939223596460927e+00 1.4495263567366365e+00 4.7848005513866756e+00 0 1 1
2539 1 7.8855673097996801e+00 4.5358141160076038e+00 4.5506879557425526e+00 0 0 0
1716 1 6.9814591829670176e+00 3.9159034730927398e+00 4.5435174332451584e+00 0 0 0
1539 1 5.9421381961471331e+00 3.7392620557046605e+00 4.5679473064571425e+00 0 0 -1
3580 2 8.7545128982830853e+00 2.6166446113162394e+00 6.8351232013900948e-02 0 0 0
3624 2 1.3489437565617075e+00 2.0461850243454580e+00 4.8145081334214268e+00 0 0 0
2147 1 9.5581824917591991e+00 1.1061611663750612e+00 1.5907634221014341e-01 0 0 1
1546 1 9.6599158647930459e+00 4.4654546364170455e+00 1.5124477769837985e-01 0 0 0
3695 2 7.5250402961620599e+00 1.5262541853241929e+00 4.7087281312782663e+00 0 0 1
1688 1 7.8558446397076809e+00 1.0075377287609615e+00 8.5126424048184657e-02 0 0 1
163 1 8.5169019569494520e-02 3.1307971278876243e+00 1.9155016767801962e+00 0 0 1
1702 1 7.3655590102742554e+00 2.2072977279941286e-02 2.9610766627186547e-01 0 0 1
3587 2 3.2595497083237848e+00 4.2970670988061048e+00 4.7894765074639860e+00 0 0 0
592 1 6.1016918136193317e+00 2.9603360519662463e+00 1.0817822246847192e-02 0 0 0
204 1 1.2988441302815068e+00 8.9403250245211374e-01 5.9628956398173294e+00 0 0 0
231 1 3.4482124413231613e-01 1.0001115377426699e+00 5.5680070756790165e+00 0 1 0
2559 1 9.5590392656658647e+00 4.1988378162029907e+00 8.0315158746743887e+00 0 0 -1
9 1 1.1604296860117367e+00 1.1962768178548684e+00 4.8299661172184196e+00 0 0 0
2989 1 1.9847259636959413e+00 6.6953677469240269e-01 5.1773470716851619e+00 1 0 -1
3250 1 2.0412960021894855e+00 2.0477786113153876e-01 6.0902521617214473e+00 1 1 0
820 1 3.0585681716485285e+00 6.5289856810443658e-01 5.8559940307535641e+00 0 1 0
713 1 2.2465761269913873e+00 1.3275107689356338e+00 6.3572444395374506e+00 0 0 1
1677 1 9.4727659137543583e+00 2.1488681317462510e+00 9.5340132028944247e+00 0 0 0
90 1 4.5519238951898515e+00 3.8314749940486688e+00 9.5842052813670477e+00 0 0 -1
1629 1 4.8366113742440531e+00 1.5427506107859392e+00 6.3876739417017099e+00 0 0 0
1851 1 3.9097250879566485e+00 1.1980320377241709e+00 5.8953880061185098e+00 0 1 0
4025 2 4.4154081533282605e+00 6.7135297006836914e-01 5.3676290631538244e+00 0 1 1
3813 2 3.6667229455880133e+00 1.7176136745641608e+00 5.2623147758687674e+00 0 1 1
81 1 4.5526685756084211e+00 1.6766366767288852e+00 5.1646384684214235e+00 0 0 -1
341 1 6.6516349921477458e-01 7.7902493338173742e-02 8.4955176161667332e+00 0 1 0
2017 1 4.6227705538466921e+00 4.8892294984009216e-01 6.1947239271911316e+00 0 0 0
68 1 5.2564006057320274e+00 9.0440539019744504e-01 5.5023885987321339e+00 0 0 0
744 1 5.6217192191990284e+00 3.4054936428875493e-01 6.2982918293788739e+00 0 1 0
742 1 5.9177937534157872e+00 1.3820395178896863e+00 6.3331443097806419e+00 0 1 0
688 1 8.6506558615140587e+00 4.4358358245539060e+00 9.5117183732535313e+00 0 0 0
1593 1 6.3301541165768009e+00 6.5596214186567614e-01 5.4788974430831239e+00 0 0 0
1663 1 7.3400473641463435e+00 7.5699433861231236e-01 5.2413451371524395e+00 0 0 1
3755 2 7.0889397465892428e+00 3.8053236872757185e-01 5.9904690200849124e+00 0 1 -1
837 1 7.6433849309472022e+00 1.1689625109824271e+00 6.2824852871965966e+00 0 1 0
836 1 6.8063995218113780e+00 1.5161634244760376e+00 5.8092054697656081e+00 0 1 0
1262 1 8.4826898744069137e+00 9.1655890573142607e-01 5.6293724100653968e+00 0 1 0
586 1 3.6988846989235293e+00 9.0165893100860361e-01 4.8875380528049011e+00 0 0 0
1185 1 9.1561095604918386e+00 7.6533854572646109e-01 6.4617521971436185e+00 0 0 0
1633 1 6.3594753705492195e+00 1.9643810644610997e+00 9.4905021510910927e+00 0 0 0
34 1 8.7487322568399650e-01 1.9340982975251260e+00 5.5025368976311144e+00 0 0 0
3057 1 2.3213970303684756e-01 2.3450993267580316e+00 9.5043306968747068e+00 1 0 -1
1237 1 7.1856883577931174e-01 3.1141506483521915e+00 5.6685377439257287e+00 0 0 0
368 1 1.9717770276455926e+00 2.4746469922744132e+00 9.6182435693610220e+00 0 1 0
1514 1 5.0162134596503352e+00 9.4640145288847854e-01 9.4970048616688043e+00 0 0 -1
164 1 1.6868311191268972e+00 2.7261651342193494e+00 5.2844479569521399e+00 0 0 1
553 1 1.9507714623716998e+00 1.7483123181052964e+00 5.4722993477859969e+00 0 0 0
4101 2 2.5198637245931952e+00 2.3863652851900334e+00 5.3189430765887735e+00 1 0 -1
1186 1 3.1357831815834825e+00 1.9131862288975743e+00 5.9010788106095138e+00 0 0 0
55 1 2.2581486120576613e+00 2.3501433959870770e+00 6.2443933998979846e+00 0 0 0
625 1 3.1454056332342955e+00 3.0134920277482813e+00 5.8250188810956072e+00 0 0 1
627 1 4.1250152801945559e+00 2.3846639585166511e+00 5.7637879394371243e+00 0 0 0
4095 2 4.1367416495582585e+00 3.1726141134300883e+00 5.4862482399237349e+00 1 0 0
1866 1 8.6248953303258489e+00 4.6048188669101098e-02 7.1721854170164470e+00 0 1 0
1060 1 5.7902300754705651e+00 1.7875863523964584e+00 5.2755293674147961e+00 0 0 0
2216 1 6.2085338090261786e+00 2.4286968710687762e+00 6.0337749891701495e+00 0 0 0
2053 1 5.1506510382058543e+00 2.4428829494567985e+00 5.8347339679074093e+00 0 0 0
1516 1 8.5020394574396132e+00 1.7860982347899907e+00 9.4808649091001573e+00 0 0 -1
3743 2 1.0305767969538342e+00 3.1428682534612196e-01 4.8878063988015414e+00 0 0 0
2590 1 7.2700029235718908e+00 2.4398867780654041e+00 6.1827340217497859e+00 0 0 0
573 1 7.0067533441339203e+00 2.3101016318754177e+00 5.1152952367541467e+00 0 0 0
995 1 7.9686825504194818e+00 2.8969409182066381e+00 5.5574601769383190e+00 0 0 0
1010 1 7.9547250980704289e+00 1.8126277566617368e+00 5.5242069017828221e+00 0 0 0
3723 2 6.7457008591562015e+00 3.2899499514744299e+00 6.3909278118314816e+00 0 0 -2
498 1 9.0556188809904992e+00 1.6944268540324763e+00 5.3752470031164084e+00 0 0 -1
3750 2 8.7986238832565746e+00 2.3755214054586129e+00 5.8978906543300962e+00 0 0 0
1639 1 9.6610004099454514e+00 1.6611163100382715e+00 6.2500744499376824e+00 0 0 0
804 1 8.5905986677721984e+00 1.6397021280720729e+00 6.3889800048986380e+00 0 1 0
1700 1 8.2288971642233122e+00 2.6839931565543456e+00 6.5242940638427598e+00 0 0 0
274 1 8.8024079365350849e-01 4.7730384373157353e+00 4.9526537220612248e+00 0 1 0
4270 2 5.1994429371634299e-01 4.1342431502553261e+00 5.4478892022017167e+00 1 1 -1
4293 2 6.8113855928021056e+00 3.8136629377946603e-02 9.1791853283208003e+00 1 1 -1
585 1 1.1512700394975788e+00 3.9637876758006398e+00 6.2862931850003623e+00 0 0 0
420 1 1.4505812910948461e+00 3.8810837621586063e+00 5.1747570424561324e+00 0 1 0
1187 1 2.5083062203849744e+00 3.3319865861960776e+00 4.9431967581182512e+00 0 0 1
577 1 2.1117021527478457e+00 3.5045109223764896e+00 5.9800975700131884e+00 0 0 -1
522 1 2.6790555177883317e+00 4.2382447088106669e+00 5.4759816193120585e+00 0 0 0
3776 2 3.0026288691306546e+00 3.7362247543295055e+00 6.2856206211522396e+00 0 0 0
1620 1 9.3731175191201093e+00 3.2133548534846414e+00 9.5028977269541954e+00 0 0 0
135 1 3.7684018121260494e+00 3.9282591368341508e+00 5.5183629195017048e+00 0 0 0
4162 2 9.6403130882444970e+00 3.2716068207046991e+00 5.1909699359785977e+00 0 1 0
3021 1 3.4507368217666361e+00 4.4984291298466452e+00 6.3505369476815954e+00 1 0 -1
1108 1 4.8246932175572050e+00 3.4524318192307373e+00 6.0166787974746114e+00 0 0 -1
173 1 5.8708661240121689e+00 3.4425318148628947e+00 6.0047059837248096e+00 0 0 0
4200 2 5.3204158602314209e+00 3.2045068112902402e+00 5.3150037679939244e+00 1 0 0
1119 1 5.5031461880971326e+00 4.4633168130444867e+00 5.9489084742835416e+00 0 0 0
901 1 7.8663264908674542e+00 1.3396303698890714e-02 8.9653295593711260e+00 0 1 0
1123 1 6.4084311345501499e+00 4.2423319874981420e+00 5.4151916847999058e+00 0 0 1
3777 2 8.3560006661989341e+00 4.4847574174451293e-01 6.4108666430709951e+00 0 1 0
3744 2 7.0698435617506146e+00 4.6586259351848955e+00 5.9885413624828150e+00 0 0 1
1228 1 6.8737367530959581e+00 3.3133983372274165e+00 5.5371085413868588e+00 0 0 0
1111 1 7.6046553982684681e+00 4.0007429845942095e+00 5.4578768232185961e+00 0 0 0
2115 1 7.5705738111793934e+00 3.4826884598908219e+00 6.3110740358302291e+00 0 0 1
1080 1 6.5965696438609065e+00 4.1327616685705664e+00 6.4663186802583992e+00 0 0 0
2093 1 7.9250651181232277e+00 4.4271507144552862e+00 6.3758307160755594e+00 0 0 0
794 1 8.9593624503487010e+00 3.2597608055651115e+00 5.8377031070469476e+00 0 1 0
3673 2 8.3113526912239291e+00 3.7905438335714083e+00 5.9089202522159088e+00 0 1 1
1078 1 8.9971342848714606e+00 4.3832765995148639e+00 6.2136197526037797e+00 0 0 0
1040 1 9.3893830367939515e+00 4.1038460096491320e+00 5.2502903847061067e+00 0 0 0
900 1 8.4344761819132295e+00 3.6627492034673583e+00 4.9969748577597040e+00 0 1 1