LAMMPS data file via write_data, version 12 Dec 2018, timestep = 5280

4320 atoms
2 atom types

0.0000000000000000e+00 1.9309999999999999e+01 xlo xhi
0.0000000000000000e+00 1.9309999999999999e+01 ylo yhi
0.0000000000000000e+00 9.6549999999999994e+00 zlo zhi
1.5447999999999951e-01 0.0000000000000000e+00 0.0000000000000000e+00 xy xz yz

Masses

1 1
2 1

Atoms # atomic

1232 1 3.4653730678147621e-01 7.1434219332745352e-01 1.2237349507065542e+00 0 0 0
3427 1 1.1211075291675257e+00 3.9473977852168451e-01 5.6915500825517029e-01 1 1 1
1106 1 6.2840783088149821e-01 1.4324838863564273e+00 3.8596952380928262e-01 0 0 0
191 1 1.2473664659492800e+00 1.0600440492580152e+00 1.4128791436162782e+00 0 0 0
1189 1 1.9603798524676856e+00 1.0581437704694876e+00 4.5260745709515693e-01 0 0 0
3040 1 2.7680668163318720e+00 3.5745919122291991e-01 1.0664108079343344e+00 1 0 0
3774 2 2.8527809297050233e+00 1.1316940781892757e+00 7.4272141153552673e-01 0 1 -1
1910 1 9.6177390385825881e+00 4.1275197424638401e+00 2.8701291457730784e+00 0 1 1
3766 2 7.5890383378042898e+00 3.3408186428398228e+00 4.7474593529851674e+00 0 1 0
1071 1 3.9004761513145958e+00 7.4568247848842140e-01 8.4419645330393367e-01 0 0 0
80 1 3.3925730224400845e+00 1.4592046632779769e+00 1.4366860815205582e+00 0 0 0
3258 1 2.3303488216048440e-01 1.5615900412971245e-01 3.7828057512021656e+00 1 1 0
870 1 5.8994917682935455e+00 7.1954402748925761e-01 4.9651060224257787e-01 0 1 1
3953 2 5.8380966978658764e+00 5.2346090916231258e-01 1.3346722878202284e+00 1 0 -1
1224 1 6.4713222584648218e+00 1.5662220793701036e+00 8.3855403701122366e-01 0 0 1
766 1 4.9887890612065888e+00 6.8145361478146382e-01 9.1278228602000555e-01 0 1 0
1627 1 6.3274674613398671e+00 4.1571556290488925e+00 3.7305293808401512e+00 0 0 1
572 1 6.7472975034527130e+00 3.6195367082214036e-01 1.0849683384142093e+00 0 0 0
3848 2 7.3637193332428792e+00 1.1103713437632943e+00 6.8582628145997682e-01 0 0 1
1215 1 7.7443026296076809e+00 4.9084125746344676e-01 1.2453955083617458e+00 0 0 1
1300 1 7.0564275878158309e+00 1.1998157898817035e+00 1.5861324719952044e+00 0 1 0
994 1 8.7611758314294619e+00 3.4263913389892191e+00 3.2699176247065362e+00 0 0 0
1330 1 8.7308760638589575e+00 8.0505084590000953e-01 8.0400157034696895e-01 0 1 0
1295 1 1.1778910721309088e+00 5.8112768857322562e-02 3.1283727172042473e+00 0 1 0
1074 1 9.6362913501051839e+00 9.3965243405989862e-01 1.3102877694078685e+00 0 0 0
2055 1 8.0138753971155072e+00 1.5393961106947536e+00 1.1309053712644288e+00 0 0 0
4171 2 1.8474496914181429e-01 3.2918053195304950e+00 2.7034406761791147e-01 1 0 0
3019 1 4.6460534947422766e-01 1.7613607268364291e+00 1.4525309233278481e+00 1 0 0
3546 2 5.3979115040551606e-01 2.1979666915255249e+00 7.7173204099056170e-01 0 1 0
2959 1 1.0317633411640919e+00 2.9191980453207127e+00 5.0400467853428921e-01 1 0 0
538 1 1.4138340023038773e+00 1.9705894336112426e+00 8.5896623621168622e-01 0 0 0
606 1 9.5922855019776909e-01 2.6454857536826299e+00 1.5441361008474190e+00 0 0 1
163 1 1.1305029638428249e-01 3.1155765752168927e+00 2.0101401834554382e+00 0 0 1
1382 1 6.5771802279569069e+00 4.0211163528560778e+00 4.7455624031162318e-02 0 0 1
1103 1 8.3335433139299937e+00 1.5634453792399725e-01 2.8591404576177344e+00 0 0 0
541 1 2.5015181522060947e+00 1.9160754921873713e+00 7.9080940249482290e-01 0 0 0
429 1 1.9639212564221271e+00 2.7623513761011478e+00 1.1631868068913016e+00 0 1 1
1392 1 3.5615045407629404e+00 3.5387684819987970e+00 1.7369498829085703e-01 0 1 1
1254 1 3.1993467511841156e+00 2.7087145816153844e+00 1.0012198117125464e+00 0 0 1
1932 1 4.5748940270810232e+00 1.6993994569598740e+00 3.7164146068510112e-01 0 1 1
719 1 3.4581839318389851e+00 1.7145214080802733e+00 4.2572381631597117e-01 0 0 0
698 1 4.2060881219550907e+00 2.1328466952887903e+00 1.3460596047571252e+00 0 0 1
611 1 4.1362952217366837e+00 2.7203061159445534e+00 4.3694006442438144e-01 0 0 1
3483 2 4.9128867911982246e+00 2.3278482972170411e+00 8.4245513151383877e-01 0 0 0
4 1 5.2182382931586142e+00 1.6561065547047622e+00 1.4298201645387743e+00 0 0 0
2120 1 5.6392516146145582e+00 1.7728278747442900e+00 2.9384218935175205e-01 0 0 1
1229 1 5.8174227022928076e+00 2.5735287988406559e+00 8.9275136714257786e-01 0 0 0
703 1 5.0981253434667666e+00 2.9205046773472314e+00 1.4725364685947990e+00 0 0 0
3928 2 6.0707024736420410e+00 1.9840378877489786e+00 1.4983709816388016e+00 0 1 0
3772 2 8.1256014030405925e+00 4.5057905395131908e+00 5.0240796486436512e-01 0 1 1
3490 2 6.5916427341884019e+00 2.4122730107192591e+00 4.5443009781161053e-01 0 0 1
993 1 7.4015887362039408e+00 1.9377441178648016e+00 3.3697539645979618e-01 0 0 0
1247 1 7.0064556964687279e+00 2.4436309915744086e+00 1.1971238592486357e+00 0 0 1
1863 1 7.2903872322299961e+00 3.1324133523074327e+00 3.5343563300742820e-01 0 1 0
1565 1 9.1229651404312815e+00 3.6675574741170704e+00 4.3330747810941173e+00 0 0 0
1573 1 8.0829226238388117e+00 2.5918704091232612e+00 8.5528142468332935e-01 0 0 0
1339 1 9.0882159156303466e+00 1.8734996735200240e+00 8.1063135909466022e-01 0 1 0
1946 1 9.0090257192733123e+00 3.0660097578234602e+00 7.6591859691411102e-01 0 1 0
4090 2 8.3132091208822523e+00 3.1873752245696330e+00 1.4876065325186705e+00 0 0 0
2171 1 8.8418734914068899e+00 2.5739341242274714e+00 1.7068912489656010e+00 0 0 0
3695 2 7.5133565830601512e+00 1.6786396643244652e+00 4.7244314908258680e+00 0 0 1
1193 1 7.0004026350169601e-01 3.6461158798908588e+00 1.2607701351280560e+00 0 0 0
217 1 9.5368207385599035e-01 4.6548779977361621e+00 8.8379095470338398e-01 0 0 1
3157 1 1.6047945917922115e+00 3.9346227925581019e+00 6.8160815952469822e-01 1 0 1
146 1 2.4885646599665820e+00 3.4851252464593858e+00 4.5142822766830931e-01 0 0 0
3186 1 3.0510952219186409e+00 4.2046269829623162e+00 1.3325785367809655e+00 1 0 1
1196 1 1.9556030779657938e+00 4.5788661956356007e+00 1.4806290253566883e+00 0 0 1
2985 1 2.8585987196523726e+00 4.4006794903053112e+00 2.0478995603963529e-01 1 0 0
825 1 7.9882305076071818e+00 3.6177293108697937e+00 4.0157323133442731e+00 0 1 0
249 1 2.0886253443894658e+00 9.6724022029559022e-03 3.5331974189294679e-01 0 1 0
11 1 3.9720704204020576e+00 3.4698556249448083e+00 1.1895132156538564e+00 0 0 0
255 1 3.8781556394946817e+00 4.4218147422266121e+00 6.7010575568682329e-01 0 0 0
291 1 3.5686910928086446e-01 6.0726552760538288e-01 4.8095232546056783e+00 0 0 0
1223 1 4.7948240321101716e+00 4.1223094520034440e+00 1.0920846822252004e+00 0 0 1
4147 2 4.7556181530368598e+00 3.2505266885213375e+00 7.3182348250686391e-01 1 1 0
616 1 5.5952730763907104e+00 3.5292013514724809e+00 6.3043400862998045e-01 0 0 1
1176 1 6.1938223126019851e+00 4.4422950443381692e+00 9.2307702472581021e-01 0 0 1
30 1 5.3174923034250190e+00 4.7032185041553847e+00 3.8795716433888355e-01 0 0 0
2004 1 6.5836169207442286e+00 3.4266321981558936e+00 9.9964066323711909e-01 0 0 0
3794 2 7.2215176606526175e+00 3.9283646013814315e+00 6.0063305744870432e-01 0 0 0
462 1 7.1780370577473107e+00 4.3029444267170858e+00 1.3933761912918528e+00 0 1 0
1034 1 7.4020662100118502e+00 3.2550232817444691e+00 1.6172453746127780e+00 0 0 0
716 1 2.6364246823882573e+00 4.7648528273038426e+00 2.4241840014840883e+00 0 0 1
2147 1 9.5944964023574908e+00 1.1391214558485518e+00 1.3563617196873240e-01 0 0 1
1501 1 8.0246067228874161e+00 3.6539658155781436e+00 8.1601143832298728e-01 0 0 0
1220 1 8.8419473410364642e+00 4.3794040663800944e+00 1.0203878146714316e+00 0 0 1
4018 2 9.1213359313100710e+00 3.8739230416497352e+00 3.6080255374633946e-01 0 0 -1
3980 2 5.0771830507513627e-01 1.0790263982230526e+00 2.0841097949765492e+00 1 0 1
3104 1 4.6002096780665036e-01 8.2448949767556790e-01 2.9012905564427003e+00 1 0 0
3013 1 7.5385776446045150e-01 1.9142967814921885e-01 2.1347119495377771e+00 1 0 0
3587 2 3.2236475860702667e+00 4.1884280270294214e+00 4.7638194574575587e+00 0 0 0
256 1 2.2505635850676393e+00 1.1462248695293500e+00 1.4720541470543116e+00 0 1 0
3190 1 1.7020823011087221e+00 7.2499426192076599e-01 2.3333080269191466e+00 1 0 1
3217 1 2.9452133928728883e+00 1.1446754107155044e+00 2.2844435996521746e+00 1 1 0
340 1 2.7575707131746117e+00 1.1427879529863759e-01 2.0987596243154947e+00 0 1 0
3573 2 3.4419690550597166e+00 6.2001519055551457e-01 1.6352532415364609e+00 0 1 3
3164 1 3.1611739265946701e+00 4.5415407983801159e-01 3.0386788532955404e+00 1 0 1
661 1 4.3039961882108990e+00 1.1434506368239958e+00 1.7657271832118828e+00 0 0 1
914 1 3.9866153717966899e+00 2.1791338391575721e-01 2.1361711520580475e+00 0 1 1
486 1 4.1177929742097827e+00 1.0156706097755692e+00 2.8754320146901042e+00 0 0 0
183 1 5.0259213284201731e+00 1.3318005959653938e+00 2.4822550456444121e+00 0 0 0
299 1 5.1638808973257211e+00 4.3105835684257909e-01 1.8664915235164135e+00 0 1 0
1770 1 5.9842052786663764e+00 1.1681155180414728e+00 1.9409254082031664e+00 0 1 0
1033 1 5.6949229741582323e+00 4.3925043436046307e-01 2.8261400130371839e+00 0 0 0
3683 2 5.8920542771402138e+00 1.2905671998899289e+00 2.8243428451790513e+00 0 1 0
4080 2 4.7238293340197490e+00 4.3901279035903856e-01 2.6839391722960966e+00 1 0 0
1971 1 6.2946133352929596e+00 9.0981178157586509e-02 1.9309872034289164e+00 0 1 0
2016 1 6.7441479873703631e+00 1.0320254803276945e+00 2.6716704357102286e+00 0 0 0
806 1 7.3852910519416657e+00 3.7347851834814699e-01 2.1552302664366136e+00 0 1 0
1462 1 7.6070765893756329e+00 7.5879627672198868e-01 3.2254700281008968e+00 0 1 1
1423 1 6.6790649655795944e+00 1.4978225672721532e-01 3.1639907202395965e+00 0 1 1
1571 1 7.9270136876641022e+00 1.2399798206666626e+00 2.2311142978204002e+00 0 0 0
1510 1 3.1014583348730338e+00 5.5628826324754010e-01 7.0695717770935043e-02 0 0 0
1957 1 9.5524703126285502e+00 1.9991318178026118e+00 3.0455856189373858e+00 0 1 1
635 1 8.5803478368990138e+00 4.1145072891762263e-01 1.8950133919294414e+00 0 0 1
890 1 8.8561174381791439e+00 1.0961780790282465e+00 2.7990835321016507e+00 0 1 1
1830 1 8.8667038102653724e+00 1.4572037322449567e+00 1.7947272243591401e+00 0 1 0
691 1 5.1934499237112126e+00 2.7557311220528131e+00 1.0318908058851346e-01 0 0 1
4133 2 1.3396802642280106e+00 4.5940579388450287e+00 3.1960553226738710e+00 1 1 0
2949 1 1.1722962671319928e+00 1.7314131059656324e+00 2.2649527169207495e+00 1 1 1
4245 2 5.0616065153026257e-01 2.3163116936547685e+00 2.2067129249806463e+00 1 0 0
315 1 6.2316394156494515e-01 1.9380738419632733e+00 3.0984009977949740e+00 0 1 0
2495 1 8.8490454767782789e-01 2.8975846596026660e+00 2.6254898083962832e+00 1 0 0
29 1 2.1370872499402420e+00 1.6833809076995914e+00 2.5453215705483694e+00 0 0 0
4302 2 1.4508954592801968e+00 2.0584499997730177e+00 3.0093969360071311e+00 0 1 -1
4225 2 1.7750372795041649e+00 1.9164661799229261e+00 1.6575287253645561e+00 1 0 1
1036 1 2.7175154159336925e+00 2.1529731923524347e+00 1.8543199186988950e+00 0 0 0
555 1 1.8220377562921186e+00 2.6263788418902809e+00 2.2278848404227745e+00 0 0 0
42 1 2.8711025562855181e+00 2.5282093174864149e+00 2.8877514277627530e+00 0 0 0
1115 1 2.7512897927671647e+00 3.2679218269849009e+00 1.7509847786365167e+00 0 0 0
1047 1 4.6723075098756670e+00 2.3893224650269311e+00 2.2302036913355998e+00 0 0 0
3124 1 3.7162793765748789e+00 1.9228714683872741e+00 2.3312691373878298e+00 1 0 1
505 1 3.7054816961744450e+00 2.9285173382496010e+00 2.1787204091127306e+00 0 0 0
3647 2 3.7328230122714019e+00 2.5668976035866686e+00 2.9519390378716377e+00 0 1 1
677 1 4.4721920693489086e+00 2.9965667903329436e+00 3.0128053814718179e+00 0 0 1
1435 1 5.7063325850974183e+00 2.0843696685403952e+00 2.3388640100254547e+00 0 1 0
3612 2 6.1584076503647500e+00 2.7519964107850599e+00 2.7241482089407043e+00 0 0 1
57 1 6.2362331707704426e+00 2.9071307226528824e+00 1.8273815977502459e+00 0 0 0
1068 1 5.4105662758253645e+00 3.0949159558710382e+00 2.4954163603152635e+00 0 0 0
1387 1 6.3941320498344414e+00 1.9449194002353081e+00 3.1629094803726385e+00 0 1 0
1198 1 6.6882120442066473e+00 1.9311903175836378e+00 2.1513116877361531e+00 0 0 1
1214 1 7.4140401860055256e+00 1.9565417726434708e+00 2.9256481113619537e+00 0 0 0
1580 1 6.9644349355979029e+00 2.9164884815824914e+00 2.5109269328857620e+00 0 0 0
1003 1 7.7757755231353771e+00 2.3194030043153524e+00 2.0174867940440326e+00 0 0 0
16 1 6.9278572631642921e-01 3.8966384802715694e+00 6.8622211400430552e-02 0 0 0
3676 2 9.3169989395175179e+00 2.0601536164637841e+00 2.2585157071921054e+00 0 0 -1
1485 1 8.5283581585433783e+00 2.1280211136577663e+00 2.7263784795274453e+00 0 0 -1
2307 1 9.2652142817034662e+00 2.9570320558536705e+00 2.5701406356354211e+00 0 1 0
3495 2 5.3667711745110731e+00 2.7626680889963263e-02 3.0521684068582022e-01 0 0 1
4209 2 1.1881451548915458e+00 4.3373589881666232e+00 1.6148845052646241e+00 1 0 1
587 1 7.1251949537224246e-01 4.0130926893027823e+00 2.2468932747996142e+00 0 0 0
1433 1 1.2791531378170704e+00 3.7480102898273286e+00 3.2147222733828866e+00 0 0 1
593 1 1.6550500761655789e+00 4.3683444808781227e+00 2.4598691270050228e+00 0 0 0
1240 1 1.5806483738275405e+00 3.6063445970680852e+00 1.7589251660013292e+00 0 0 1
4197 2 3.0747902576831172e+00 4.2330755861134817e+00 3.0363562702872482e+00 1 0 0
3540 2 2.3772816986253322e+00 3.9547951710526288e+00 2.0394227216220422e+00 0 0 0
2595 1 2.3948903356181912e+00 3.4321585997480453e+00 2.7857425067233601e+00 1 0 0
772 1 4.4393815463504245e+00 5.9335160238711635e-03 1.5547113984360053e-01 0 1 0
695 1 3.4147739709221798e+00 4.0297097207681594e+00 2.3385400043211693e+00 0 0 1
2982 1 4.5501035122258813e+00 3.7454339772695389e+00 2.0838488326513729e+00 1 0 0
563 1 4.4321216097993554e+00 4.1134220817536606e+00 3.0321843927925562e+00 0 0 0
1442 1 4.1767231164109733e+00 4.6836083543985021e+00 1.7559092013864617e+00 0 1 1
1100 1 6.3884622731516583e+00 4.5722886390408579e+00 2.1158901051037464e+00 0 0 0
3204 1 1.8212887013757934e-01 1.7267820539948904e+00 4.8007370520602910e+00 1 0 1
13 1 5.2899503102511165e+00 4.4037857651218104e+00 2.4569681147815321e+00 0 0 0
997 1 5.6902537460098603e+00 3.8395115772651982e+00 1.6911823334649472e+00 0 0 0
1420 1 6.2389453967541222e+00 3.7023964046847198e+00 2.7196732221866720e+00 0 1 1
3478 2 6.7312856113734911e+00 4.4482748235706522e+00 2.9294823846810445e+00 0 0 0
4017 2 6.6784050349149942e+00 3.7022733419602432e+00 1.9024763135725113e+00 0 1 0
887 1 7.3616095045398806e+00 3.9353095853493740e+00 2.5288494938627202e+00 0 1 1
3951 2 7.9472100388747746e+00 3.6310036399455541e+00 3.1310492161809247e+00 0 0 1
1277 1 8.2363029978758711e+00 3.1765899538483380e+00 2.3892634355680156e+00 0 1 0
649 1 8.2031480455691224e+00 4.0150068489436306e+00 1.8223957077709803e+00 0 0 1
709 1 9.1058622883755618e+00 3.5750738917307547e+00 1.6881144375061365e+00 0 0 0
1009 1 8.2899635566240431e+00 4.4894510133574590e+00 2.7810445859393464e+00 0 0 0
3742 2 8.8244401117752460e+00 3.8121425088685559e+00 2.5138253555393613e+00 0 0 1
2638 1 9.1015194224702789e+00 4.6009116202717673e+00 2.0320365388393600e+00 0 0 1
1486 1 9.4919197965246269e+00 3.5429516919160992e-01 2.4210948598627655e+00 0 0 0
296 1 4.2640235982033845e+00 2.6425372469853197e+00 4.7679340344627397e+00 0 1 0
1066 1 1.4133560376015810e+00 1.2329498844605948e+00 3.2633853978416498e+00 0 0 0
612 1 5.7231741402571046e-01 1.2306639883124122e+00 3.9707233935391533e+00 0 0 0
214 1 1.1901740227170992e+00 3.7996621288564231e-01 4.1907994923175309e+00 0 0 0
1210 1 8.8631571719112578e+00 4.4177514350268723e+00 3.6509093050564601e+00 0 0 1
14 1 2.1637669857676354e+00 4.8986258763675877e-01 3.2642212419600156e+00 0 0 0
4131 2 2.5462233162210408e+00 1.2016841737871122e+00 3.1396799021510273e+00 0 1 0
1688 1 7.9541848373782686e+00 7.0697743583567552e-01 1.5822319266627571e-01 0 0 1
2954 1 1.8880847256177893e+00 1.1702696328714224e+00 4.1800144140754316e+00 1 0 0
758 1 2.8741823666600559e+00 9.6176693758919407e-01 3.8913362139378020e+00 0 1 0
1460 1 4.6632247423467925e+00 6.3263362561783132e-01 4.5678941981191397e+00 0 1 0
115 1 3.7821453683133095e+00 3.8836293603305705e-01 3.9991355615484299e+00 0 0 0
3476 2 4.3611915026412937e+00 1.1666032334285703e+00 3.6896486968753215e+00 0 0 0
3330 1 3.7398955097828361e+00 1.5080367809480029e+00 4.2605839037997351e+00 1 1 0
991 1 4.7573846986327970e+00 2.1739411308046105e-01 3.5686217881819857e+00 0 0 0
129 1 7.7989140740514185e-01 2.6871947906550071e+00 4.7011424521356204e+00 0 0 0
704 1 5.2106225263913357e+00 1.2052154808761841e+00 3.5112899724367725e+00 0 0 0
631 1 5.7040367838392738e+00 6.7935696040219429e-01 4.5288396834666278e+00 0 0 1
659 1 6.2044246586842284e+00 9.9139469172283079e-01 3.6105266873764275e+00 0 0 1
3653 2 6.9471843409095220e+00 1.3423739264958157e+00 3.5689778773243126e+00 0 1 -1
1536 1 7.4268363243417843e+00 1.0165446361090402e+00 4.1751427472828953e+00 0 0 0
1109 1 6.6780917670149558e+00 2.7504082518222300e-01 4.2575283873003285e+00 0 0 -1
3801 2 7.4616244725717547e+00 1.4575571215109473e-01 4.6597399805829145e+00 0 1 1
41 1 3.4715925777164047e+00 3.4263343438856455e+00 4.5350943860054631e+00 0 0 0
1513 1 9.5856152176616298e+00 4.6735443535372836e+00 4.3487873299450035e+00 0 0 0
1623 1 8.3066698147633957e+00 3.5597836185115050e-01 4.8068674663103694e+00 0 0 0
1271 1 8.5801900353340113e+00 6.9698943327784435e-01 3.8053986759533878e+00 0 1 0
2133 1 9.2885822930749935e+00 1.1126707052599436e+00 4.4499031935076356e+00 0 0 0
4039 2 8.9593054654670663e+00 1.4856999303238430e+00 3.6035670687547383e+00 0 1 1
2140 1 7.0734496037151846e+00 3.4739610895754724e+00 3.3756827972589685e+00 0 0 1
1147 1 1.1769421419465407e+00 2.0293307989448461e+00 4.0292262420280540e+00 0 0 1
2579 1 7.7542945852162959e-01 2.9601306363234481e+00 3.7212241361233604e+00 1 0 0
90 1 4.6151625214392498e+00 3.8437022819780400e+00 9.1990573992055361e-02 0 0 0
3012 1 1.7321645752530277e+00 2.7622910449213793e+00 3.3693728610628200e+00 1 0 0
1107 1 1.6570987033096856e+00 3.2904167148436270e+00 4.3642910902158070e+00 0 0 0
8 1 2.2685235068031608e+00 1.9103650454503338e+00 3.5257311860662028e+00 0 0 0
3062 1 2.1576654022749278e+00 2.3449820410122801e+00 4.5131032643238180e+00 1 0 0
4064 2 2.9331274077281462e+00 1.8824543865075309e+00 4.1430450919751785e+00 0 1 1
1844 1 2.7620085463380750e+00 2.8699048197652179e+00 3.8607022833944744e+00 0 0 1
2056 1 7.5011188665390289e+00 4.4023586140564790e+00 3.5119210220181198e+00 0 0 0
1180 1 3.3618792733603153e+00 1.6674730478315876e+00 3.3338377249178448e+00 0 0 0
26 1 4.3900828997590535e+00 1.9445352477627027e+00 3.1688147278944148e+00 0 0 0
3734 2 4.6343981549897482e+00 2.5967320495174397e+00 3.7443167149679839e+00 1 0 0
2554 1 3.7222130312086730e+00 2.5567713764170645e+00 3.8472779441290470e+00 1 0 0
89 1 4.6944436751693486e+00 1.8804770875487988e+00 4.1594826271712968e+00 0 0 0
1618 1 5.3260277900403423e+00 2.4191277904291675e+00 3.2921361319600533e+00 0 0 1
69 1 5.9249589814655561e+00 1.9014504354490827e+00 4.2003482477749712e+00 0 0 0
1528 1 5.2842669848462087e+00 2.8511087320249375e+00 4.2249840743428653e+00 0 0 0
1102 1 6.1662194066274783e+00 2.9438834137592576e+00 3.6307363827922408e+00 0 0 0
3925 2 6.9853477380286559e+00 2.5993936609873858e+00 3.2843866233836390e+00 0 1 0
124 1 7.1548087593293150e+00 2.0736365171762592e+00 3.9539771320721919e+00 0 0 0
160 1 6.8941832726343950e+00 2.9497050935420699e+00 4.3754298789822146e+00 0 0 0
1488 1 7.8238922288133450e+00 2.5248792445572001e+00 4.6220816370237410e+00 0 0 0
521 1 7.9246653506869587e+00 2.7263276074471605e+00 3.4083531925139945e+00 0 0 0
351 1 1.7563542154984928e+00 1.0631363271500817e-01 1.5214224824711648e+00 0 1 0
1905 1 8.3671367097208282e+00 1.5265346214219886e+00 4.6704169887461333e+00 0 1 1
1202 1 8.1244888244969946e+00 1.5727704153190194e+00 3.6518767902188234e+00 0 0 1
4048 2 8.5704104868254571e+00 3.0447766784273678e+00 4.1373274636188135e+00 0 1 0
3677 2 9.3080279104508357e+00 2.0120226493866449e+00 4.6208868898903379e+00 0 1 1
2489 1 8.9175832634743593e+00 2.2920900626772158e+00 3.8899744105842955e+00 0 0 0
368 1 1.9806712025746047e+00 2.5456952596093045e+00 4.9435800023130437e-02 0 1 1
2634 1 2.6400270134912812e-01 3.9366584656800989e+00 3.5897846221058791e+00 1 0 1
1079 1 6.7825622378828876e-01 3.7306357405868957e+00 4.6283337328484997e+00 0 0 0
136 1 1.4350553246471904e+00 4.3318006481752738e+00 4.1203133928670619e+00 0 0 0
853 1 2.3281216631831003e+00 1.2500095272337206e-01 4.3632634212388153e+00 0 1 0
3138 1 2.3995894119418835e+00 4.0031671886773497e+00 4.3459060725864429e+00 1 0 1
3615 2 2.1301329359810555e+00 3.4862969100443539e+00 3.6472219246962942e+00 0 0 0
3071 1 2.2029802078233156e+00 4.3161710171120244e+00 3.3253299803840659e+00 1 0 0
684 1 6.5725555972766356e+00 1.2435999688807720e+00 4.7908329679577877e+00 0 0 0
2998 1 4.3846965219410432e+00 3.4325490240298735e+00 3.9410307001635294e+00 1 0 0
694 1 1.4904308554180223e-01 4.7591586455819685e+00 1.7641163541267857e-01 0 0 1
49 1 4.7997378339801928e+00 4.4292463567006148e+00 3.9350100114515918e+00 0 0 0
1031 1 3.3984570512505852e+00 3.3635027155446471e+00 3.1621075534848044e+00 0 0 0
192 1 4.0949627611825195e+00 4.4050930072435062e+00 4.7127588464873886e+00 0 0 0
3201 1 3.6442278499559673e+00 4.1902857784181045e+00 3.7672858740777997e+00 1 0 0
4214 2 9.1470827140690467e+00 1.7792114883346860e-01 3.2871127236980859e+00 1 0 1
1195 1 5.3338782425689617e+00 3.5635761444086214e+00 3.4288682573363882e+00 0 0 1
2394 1 9.5251093373505480e+00 1.3816828074170123e-01 4.1132750910605829e+00 0 1 0
3732 2 5.2317902155026887e+00 3.7015630396683101e+00 4.2836624712104401e+00 0 0 0
3606 2 6.2178208144661928e+00 4.4735847445940502e+00 4.4975536562962555e+00 0 0 0
3781 2 5.2686345574668794e+00 1.3990196066876535e+00 4.4929781333813565e+00 0 1 1
2539 1 7.8661298789392875e+00 4.5604232799341098e+00 4.4770302814677372e+00 0 0 0
1716 1 7.0224757090417071e+00 3.9025669286619595e+00 4.5456781807176210e+00 0 0 0
1539 1 5.9721641220475483e+00 3.5849288065237515e+00 4.5486298554347844e+00 0 0 -1
3580 2 8.6149816525696252e+00 2.5198422998302568e+00 4.9248764986997040e-02 0 0 0
3620 2 8.7318966952576975e+00 4.4431536855959557e+00 4.5882087658775390e+00 0 0 0
4319 2 1.1053050776568170e+00 2.1512178213062652e+00 1.6936895593193148e-02 0 0 1
1192 1 2.6983334858435741e+00 1.4009546700969711e+00 4.8093998739435957e+00 0 0 0
204 1 1.2043648110838532e+00 8.1213158547863551e-01 5.9895634539076070e+00 0 0 0
231 1 3.0221956693668867e-01 1.1352074416876676e+00 5.7081974553928996e+00 0 1 0
2562 1 8.5615923060336918e+00 3.4095518518729850e+00 9.5691090417560236e+00 0 0 -1
547 1 1.8060472764104587e+00 4.8089135241662229e+00 5.9799450367269014e+00 0 0 -1
2989 1 2.0054860674567223e+00 6.5336022160370311e-01 5.1822947646429203e+00 1 0 -1
3250 1 2.0106672979813194e+00 5.5838004705275134e-02 6.1169867881438265e+00 1 1 0
820 1 2.9505004245841020e+00 6.4218884028980305e-01 5.8698390381156047e+00 0 1 0
713 1 2.2648052439230617e+00 1.2042096656414703e+00 6.3498828724007783e+00 0 0 1
1677 1 9.4236334195600620e+00 2.2514748965138449e+00 9.5473749573727815e+00 0 0 0
1992 1 9.6444013212772557e+00 9.3025557846298368e-01 5.5310769955795775e+00 0 0 -1
1629 1 4.8361421984896795e+00 1.5418594697157637e+00 6.3483327488155510e+00 0 0 0
1851 1 3.9275078709391731e+00 1.1765924220914352e+00 5.9781149003215237e+00 0 1 0
4025 2 4.3486474074573396e+00 5.9441891254873380e-01 5.4782963702067482e+00 0 1 1
3813 2 3.5526945169382258e+00 1.5904745577779074e+00 5.1487160562038117e+00 0 1 1
81 1 4.5589618500655362e+00 1.4929688755573294e+00 5.1369563950937591e+00 0 0 -1
341 1 7.4795557010647706e-01 9.5258155157530180e-02 8.5260166905257133e+00 0 1 0
2017 1 4.5914507896379995e+00 4.1836382692778268e-01 6.2571183964877708e+00 0 0 0
68 1 5.2460668758853144e+00 7.7547123566954612e-01 5.4964684861173358e+00 0 0 0
744 1 5.5834306093964177e+00 2.4345115634403863e-01 6.3784003523081578e+00 0 1 0
742 1 5.8764919954537849e+00 1.2188190447733442e+00 6.2932998969353457e+00 0 1 0
688 1 8.7573619290758007e+00 4.5284184073670666e+00 9.4723132670890653e+00 0 0 0
1593 1 6.2516241799300971e+00 4.8282049659258963e-01 5.4670548107812973e+00 0 0 0
1663 1 7.4858391676466729e+00 8.6816282337561690e-01 5.2485194385556948e+00 0 0 1
3755 2 7.0878628136676491e+00 5.0687242597334448e-01 6.0189701781920588e+00 0 1 -1
837 1 7.7008100715634544e+00 1.1145058836575401e+00 6.3496017641162030e+00 0 1 0
836 1 6.7291745403405310e+00 1.3852269688215406e+00 5.7803637810299957e+00 0 1 0
1262 1 8.5887021396703442e+00 9.7655296864635310e-01 5.6217839284404860e+00 0 1 0
586 1 3.6505865487876061e+00 7.0860488164425695e-01 4.9529728692586072e+00 0 0 0
1185 1 9.1101851333762713e+00 7.0021034523869197e-01 6.5153352814032450e+00 0 0 0
1633 1 6.5134468221854611e+00 1.7817280951303858e+00 9.4321052981666167e+00 0 0 0
34 1 9.3085879234415125e-01 1.9869181260114335e+00 5.6013017532754166e+00 0 0 0
1414 1 1.8112668239948054e-01 2.1978270535612090e+00 6.3587289785210368e+00 0 1 1
1237 1 7.1147861041558458e-01 3.2402232584873256e+00 5.6556294883697982e+00 0 0 0
2559 1 9.5947158311708449e+00 4.2532004583326799e+00 7.8392053734460516e+00 0 0 -1
1514 1 5.1399382343544184e+00 9.1397806240293400e-01 9.5065003339538077e+00 0 0 -1
164 1 1.6402426854545287e+00 2.7286543094108575e+00 5.4330611804944091e+00 0 0 1
553 1 1.9152727550349102e+00 1.6741214338520702e+00 5.4887324762981100e+00 0 0 0
4101 2 2.4360897470090199e+00 2.4182412048740320e+00 5.3725753616357270e+00 1 0 -1
1186 1 2.9160490439278521e+00 1.7859767030796603e+00 5.7381911341433742e+00 0 0 0
55 1 2.2257760853756827e+00 2.3941151513127448e+00 6.2685812669443735e+00 0 0 0
625 1 3.0866367029086303e+00 2.9172884759830375e+00 5.7398800352075758e+00 0 0 1
627 1 3.9203805992017857e+00 2.1630865591309822e+00 5.7088250890343870e+00 0 0 0
4095 2 4.0301214941913948e+00 3.0627763216808357e+00 5.5083656985943481e+00 1 0 0
3050 1 1.3591429731624932e-01 3.2803877160973243e+00 9.0476028739840153e+00 1 0 0
1060 1 5.6989861882971971e+00 1.6360311457210299e+00 5.2210336553297081e+00 0 0 0
2216 1 6.1366503333448135e+00 2.3813260866069399e+00 5.9840829675796661e+00 0 0 0
2053 1 5.1078203062495078e+00 2.5071366599750453e+00 5.6500573420611921e+00 0 0 0
1516 1 8.4650322312520991e+00 1.6483735751524802e+00 9.5702416706606819e+00 0 0 -1
3743 2 1.1286740698249647e+00 4.8536506003672858e-01 5.1919472044677164e+00 0 0 0
2590 1 7.0980887860900062e+00 2.3783276579007446e+00 6.1653762848182749e+00 0 0 0
573 1 6.9464363072631476e+00 2.1806244607062100e+00 5.0980122036369240e+00 0 0 0
995 1 7.8899150033956413e+00 2.9923227581313681e+00 5.5437083818943265e+00 0 0 0
1010 1 7.7952984669333825e+00 1.9329687198376424e+00 5.5966062381698896e+00 0 0 0
3723 2 6.5622189783468814e+00 3.1295795826689385e+00 6.2218836066975962e+00 0 0 -2
498 1 9.0223242128674404e+00 1.8655270696468480e+00 5.4156484646256962e+00 0 0 -1
3750 2 8.6082802109272016e+00 2.5354996372828293e+00 5.7642760000689872e+00 0 0 0
1866 1 8.6193985703942495e+00 6.0735365040295766e-02 7.3049645722903582e+00 0 1 0
804 1 8.5839804606309524e+00 1.6852348129136343e+00 6.4527172671426767e+00 0 1 0
1700 1 8.1848753224330792e+00 2.7510772176941889e+00 6.5060104473272204e+00 0 0 0
3057 1 2.4131218576770980e-01 2.3407591995956842e+00 9.5660231360097931e+00 1 0 -1
4270 2 7.3716597875698997e-01 4.0859682546830625e+00 5.6465966418244236e+00 1 1 -1
3624 2 1.3893403410958813e+00 2.1164242255448227e+00 4.8692280863279391e+00 0 0 0
585 1 1.2252223417927275e+00 4.0298731428781052e+00 6.3713356547913005e+00 0 0 0
420 1 1.5336261212335098e+00 3.9877516766684882e+00 5.3081737453448454e+00 0 1 0
1187 1 2.5389819941098906e+00 3.1722479008086744e+00 4.9495815657243325e+00 0 0 1
577 1 2.0115059335307026e+00 3.4930939221651043e+00 6.0477486884095359e+00 0 0 -1
522 1 2.6559749583481236e+00 4.1527090418572739e+00 5.4639745766682850e+00 0 0 0
3776 2 3.0514899712885075e+00 3.7581588753997508e+00 6.1456302003620280e+00 0 0 0
1620 1 9.5622601031107859e+00 3.2863132978635119e+00 9.4241559927984735e+00 0 0 0
135 1 3.6894211222815150e+00 3.8773495458298530e+00 5.4817375601832961e+00 0 0 0
4162 2 9.4406440679205197e+00 3.3314043564975711e+00 5.2036254754560574e+00 0 1 0
3021 1 3.5614116909397957e+00 4.4820986755021819e+00 6.3441287459966054e+00 1 0 -1
1108 1 4.8170545679154229e+00 3.5191824621381604e+00 6.1050993747294973e+00 0 0 -1
173 1 5.8458024839323866e+00 3.3565338058657259e+00 5.7733112956390462e+00 0 0 0
4200 2 5.3627925265155589e+00 3.1628999078816009e+00 5.0434642492044217e+00 1 0 0
1119 1 5.4803375037269788e+00 4.4483767976140500e+00 5.9369787812446804e+00 0 0 0
451 1 1.4524791201813307e+00 2.8699260834259264e-03 7.7167493353250425e+00 0 1 0
1123 1 6.3513641970715584e+00 4.2641692720852724e+00 5.3120965502110451e+00 0 0 1
3777 2 8.3170699968365938e+00 2.6482458094658257e-01 6.3197166269371694e+00 0 1 0
3744 2 7.0980509540970420e+00 4.6353126856345064e+00 6.0300550985103953e+00 0 0 1
1228 1 6.8174579107781748e+00 3.2093661616896108e+00 5.4340200126901888e+00 0 0 0
1111 1 7.5021704793347634e+00 4.0771799113867955e+00 5.4806348873027355e+00 0 0 0
2115 1 7.3493218356912049e+00 3.4478337055044039e+00 6.3280618830325954e+00 0 0 1
1080 1 6.5175167347177094e+00 3.9951906842240352e+00 6.4295424268549741e+00 0 0 0
2093 1 7.8651099121688572e+00 4.5799694195584157e+00 6.5547379942776773e+00 0 0 0
794 1 8.8792050115720951e+00 3.3782554723311597e+00 5.8545529973077590e+00 0 1 0
3673 2 8.2479002628779288e+00 3.9992804846908370e+00 5.9476451513205744e+00 0 1 1
1078 1 9.0865344754734814e+00 4.3382403841788166e+00 6.2556419365292601e+00 0 0 0
1040 1 9.2414499494315994e+00 4.1948026716642541e+00 5.2687301218775238e+00 0 0 0
900 1 8.3430886732973342e+00 3.7610392437103699e+00 5.0023194192211786e+00 0 1 1
1551 1 9.0581088219243533e+00 3.9086465762038336e+00 8.6799206444478578e+00 0 0 -1
610 1 5.1682499579910832e+00 4.6607112259827721e+00 7.6693534263840313e+00 0 0 0
2475 1 2.7748286553426410e-01 3.4104776740311826e-01 6.4131857960067489e+00 1 1 0
442 1 4.8857053729264149e-01 5.2282256607836730e-01 7.5786165856129557e+00 0 1 0
168 1 5.0702745139143457e-01 1.2767514349125391e+00 6.8412544565161655e+00 0 0 0
4190 2 1.0861383891292840e+00 1.5040384199249679e+00 7.4088666630791469e+00 1 0 0