LAMMPS data file via write_data, version 18 Sep 2018, timestep = 0

4320 atoms
2 atom types

0.0000000000000000e+000 1.9309999999999999e+001 xlo xhi
0.0000000000000000e+000 1.9309999999999999e+001 ylo yhi
0.0000000000000000e+000 9.6549999999999994e+000 zlo zhi
3.5447999999999952e-001 0.0000000000000000e+000 0.0000000000000000e+000 xy xz yz

Masses

1 1
2 1

Atoms # atomic

1232 1 3.5393598304587248e-001 7.1434219332745352e-001 1.2237349507065542e+000 0 0 0
3427 1 1.1251959784530945e+000 3.9473977852168451e-001 5.6915500825517029e-001 1 1 1
1106 1 6.4324453607421161e-001 1.4324838863564273e+000 3.8596952380928262e-001 0 0 0
191 1 1.2583456896598757e+000 1.0600440492580152e+000 1.4128791436162782e+000 0 0 0
1189 1 1.9713393943679394e+000 1.0581437704694876e+000 4.5260745709515693e-001 0 0 0
3040 1 2.7717691383538630e+000 3.5745919122291991e-001 1.0664108079343344e+000 1 0 0
3774 2 2.8645022562528148e+000 1.1316940781892757e+000 7.4272141153552673e-001 0 1 -1
1910 1 9.6604891135951672e+000 4.1275197424638401e+000 2.8701291457730784e+000 0 1 1
3766 2 7.6236402916400268e+000 3.3408186428398228e+000 4.7474593529851674e+000 0 1 0
1071 1 3.9081994291860447e+000 7.4568247848842140e-001 8.4419645330393367e-001 0 0 0
80 1 3.4076864834786966e+000 1.4592046632779769e+000 1.4366860815205582e+000 0 0 0
3258 1 2.3465227215664919e-001 1.5615900412971245e-001 3.7828057512021656e+000 1 1 0
870 1 5.9069443216595650e+000 7.1954402748925761e-001 4.9651060224257787e-001 0 1 1
3953 2 5.8435183540974904e+000 5.2346090916231258e-001 1.3346722878202284e+000 1 0 -1
1224 1 6.4875441339632189e+000 1.5662220793701036e+000 8.3855403701122366e-001 0 0 1
766 1 4.9958470996817983e+000 6.8145361478146382e-001 9.1278228602000555e-001 0 1 0
1627 1 6.3705244849447258e+000 4.1571556290488925e+000 3.7305293808401512e+000 0 0 1
572 1 6.7510463762732424e+000 3.6195367082214036e-001 1.0849683384142093e+000 0 0 0
3848 2 7.3752198132404283e+000 1.1103713437632943e+000 6.8582628145997682e-001 0 0 1
1215 1 7.7493864334136209e+000 4.9084125746344676e-001 1.2453955083617458e+000 0 0 1
1300 1 7.0688544732625624e+000 1.1998157898817035e+000 1.5861324719952044e+000 0 1 0
994 1 8.7966640897307506e+000 3.4263913389892191e+000 3.2699176247065362e+000 0 0 0
1330 1 8.7392142393731991e+000 8.0505084590000953e-001 8.0400157034696895e-001 0 1 0
1295 1 1.1784929651278775e+000 5.8112768857322562e-002 3.1283727172042473e+000 0 1 0
1074 1 9.6460236383916662e+000 9.3965243405989862e-001 1.3102877694078685e+000 0 0 0
2055 1 8.0298194272625274e+000 1.5393961106947536e+000 1.1309053712644288e+000 0 0 0
4171 2 2.1883927592100119e-001 3.2918053195304950e+000 2.7034406761791147e-001 1 0 0
3019 1 4.8284833991272003e-001 1.7613607268364291e+000 1.4525309233278481e+000 1 0 0
3546 2 5.6255621194384364e-001 2.1979666915255249e+000 7.7173204099056170e-001 0 1 0
2959 1 1.0619984322601117e+000 2.9191980453207127e+000 5.0400467853428921e-001 1 0 0
538 1 1.4342440430455787e+000 1.9705894336112426e+000 8.5896623621168622e-001 0 0 0
606 1 9.8662871336382429e-001 2.6454857536826299e+000 1.5441361008474190e+000 0 0 1
163 1 1.4531934428917004e-001 3.1155765752168927e+000 2.0101401834554382e+000 0 0 1
1382 1 6.6188282481832772e+000 4.0211163528560778e+000 4.7455624031162318e-002 0 0 1
1103 1 8.3351626255604874e+000 1.5634453792399725e-001 2.8591404576177344e+000 0 0 0
541 1 2.5213635741862870e+000 1.9160754921873713e+000 7.9080940249482290e-001 0 0 0
429 1 1.9925318351492236e+000 2.7623513761011478e+000 1.1631868068913016e+000 0 1 1
1392 1 3.5981567259726637e+000 3.5387684819987970e+000 1.7369498829085703e-001 0 1 1
1254 1 3.2274017960480763e+000 2.7087145816153844e+000 1.0012198117125464e+000 0 0 1
1932 1 4.5924952643359189e+000 1.6993994569598740e+000 3.7164146068510112e-001 0 1 1
719 1 3.4759417920987499e+000 1.7145214080802733e+000 4.2572381631597117e-001 0 0 0
698 1 4.2281787143454457e+000 2.1328466952887903e+000 1.3460596047571252e+000 0 0 1
611 1 4.1644703239215053e+000 2.7203061159445534e+000 4.3694006442438144e-001 0 0 1
3483 2 4.9369970791031150e+000 2.3278482972170411e+000 8.4245513151383877e-001 0 0 0
4 1 5.2353911316330333e+000 1.6561065547047622e+000 1.4298201645387743e+000 0 0 0
2120 1 5.6576133740629775e+000 1.7728278747442900e+000 2.9384218935175205e-001 0 0 1
1229 1 5.8440775836894003e+000 2.5735287988406559e+000 8.9275136714257786e-001 0 0 0
703 1 5.1283739677790123e+000 2.9205046773472314e+000 1.4725364685947990e+000 0 0 0
3928 2 6.0912518044317769e+000 1.9840378877489786e+000 1.4983709816388016e+000 0 1 0
3772 2 8.1722693526989367e+000 4.5057905395131908e+000 5.0240796486436512e-001 0 1 1
3490 2 6.6166274365262501e+000 2.4122730107192591e+000 4.5443009781161053e-001 0 0 1
993 1 7.4216585872434511e+000 1.9377441178648016e+000 3.3697539645979618e-001 0 0 0
1247 1 7.0317651836937349e+000 2.4436309915744086e+000 1.1971238592486357e+000 0 0 1
1863 1 7.3228306641544654e+000 3.1324133523074327e+000 3.5343563300742820e-001 0 1 0
1565 1 9.1609512354506197e+000 3.6675574741170704e+000 4.3330747810941173e+000 0 0 0
1573 1 8.1097674753056506e+000 2.5918704091232612e+000 8.5528142468332935e-001 0 0 0
1339 1 9.1076203658998480e+000 1.8734996735200240e+000 8.1063135909466022e-001 0 1 0
1946 1 9.0407813874019922e+000 3.0660097578234602e+000 7.6591859691411102e-001 0 1 0
4090 2 8.3462218109347646e+000 3.1873752245696330e+000 1.4876065325186705e+000 0 0 0
2171 1 8.8685325708913751e+000 2.5739341242274714e+000 1.7068912489656010e+000 0 0 0
3695 2 7.5307428043374669e+000 1.6786396643244652e+000 4.7244314908258680e+000 0 0 1
1193 1 7.3780428090087635e-001 3.6461158798908588e+000 1.2607701351280560e+000 0 0 0
217 1 1.0018941711914244e+000 4.6548779977361621e+000 8.8379095470338398e-001 0 0 1
3157 1 1.6455467698611721e+000 3.9346227925581019e+000 6.8160815952469822e-001 1 0 1
146 1 2.5246612446010674e+000 3.4851252464593858e+000 4.5142822766830931e-001 0 0 0
3186 1 3.0946439218975357e+000 4.2046269829623162e+000 1.3325785367809655e+000 1 0 1
1196 1 2.0030278961494874e+000 4.5788661956356007e+000 1.4806290253566883e+000 0 0 1
2985 1 2.9041779997176786e+000 4.4006794903053112e+000 2.0478995603963529e-001 1 0 0
825 1 8.0257005160056281e+000 3.6177293108697937e+000 4.0157323133442731e+000 0 1 0
249 1 2.0887255246297864e+000 9.6724022029559022e-003 3.5331974189294679e-001 0 1 0
11 1 4.0080088525609892e+000 3.4698556249448083e+000 1.1895132156538564e+000 0 0 0
255 1 3.9239538242924716e+000 4.4218147422266121e+000 6.7010575568682329e-001 0 0 0
291 1 3.6315875741763720e-001 6.0726552760538288e-001 4.8095232546056783e+000 0 0 0
1223 1 4.8375201424364631e+000 4.1223094520034440e+000 1.0920846822252004e+000 0 0 1
4147 2 4.7892849235031605e+000 3.2505266885213375e+000 7.3182348250686391e-001 1 1 0
616 1 5.6318261716933806e+000 3.5292013514724809e+000 6.3043400862998045e-001 0 0 1
1176 1 6.2398326186023807e+000 4.4422950443381692e+000 9.2307702472581021e-001 0 0 1
30 1 5.3662050792319107e+000 4.7032185041553847e+000 3.8795716433888355e-001 0 0 0
2004 1 6.6191076737028602e+000 3.4266321981558936e+000 9.9964066323711909e-001 0 0 0
3794 2 7.2622050205840667e+000 3.9283646013814315e+000 6.0063305744870432e-001 0 0 0
462 1 7.2226040637205582e+000 4.3029444267170858e+000 1.3933761912918528e+000 0 1 0
1034 1 7.4357795531681887e+000 3.2550232817444691e+000 1.6172453746127780e+000 0 0 0
716 1 2.6857758250843116e+000 4.7648528273038426e+000 2.4241840014840883e+000 0 0 1
2147 1 9.6062946566904639e+000 1.1391214558485518e+000 1.3563617196873240e-001 0 0 1
1501 1 8.0624520446437931e+000 3.6539658155781436e+000 8.1601143832298728e-001 0 0 0
1220 1 8.8873062645618930e+000 4.3794040663800944e+000 1.0203878146714316e+000 0 0 1
4018 2 9.1614594221609220e+000 3.8739230416497352e+000 3.6080255374633946e-001 0 0 -1
3980 2 5.1889413519655581e-001 1.0790263982230526e+000 2.0841097949765492e+000 1 0 1
3104 1 4.6856047580950450e-001 8.2448949767556790e-001 2.9012905564427003e+000 1 0 0
3013 1 7.5584046438949593e-001 1.9142967814921885e-001 2.1347119495377771e+000 1 0 0
3587 2 3.2670285081523942e+000 4.1884280270294214e+000 4.7638194574575587e+000 0 0 0
256 1 2.2624354117846708e+000 1.1462248695293500e+000 1.4720541470543116e+000 0 1 0
3190 1 1.7095913043393876e+000 7.2499426192076599e-001 2.3333080269191466e+000 1 0 1
3217 1 2.9570691713370580e+000 1.1446754107155044e+000 2.2844435996521746e+000 1 1 0
340 1 2.7587543361191860e+000 1.1427879529863759e-001 2.0987596243154947e+000 0 1 0
3573 2 3.4483907556351237e+000 6.2001519055551457e-001 1.6352532415364609e+000 0 1 3
3164 1 3.1658777492755403e+000 4.5415407983801159e-001 3.0386788532955404e+000 1 0 1
661 1 4.3158392812903834e+000 1.1434506368239958e+000 1.7657271832118828e+000 0 0 1
914 1 3.9888723721479664e+000 2.1791338391575721e-001 2.1361711520580475e+000 0 1 1
486 1 4.1283126076616270e+000 1.0156706097755692e+000 2.8754320146901042e+000 0 0 0
183 1 5.0397152237693748e+000 1.3318005959653938e+000 2.4822550456444121e+000 0 0 0
299 1 5.1683455100325322e+000 4.3105835684257909e-001 1.8664915235164135e+000 0 1 0
1770 1 5.9963038340060084e+000 1.1681155180414728e+000 1.9409254082031664e+000 0 1 0
1033 1 5.6994724348973351e+000 4.3925043436046307e-001 2.8261400130371839e+000 0 0 0
3683 2 5.9054211046895650e+000 1.2905671998899289e+000 2.8243428451790513e+000 0 1 0
4080 2 4.7283763334020312e+000 4.3901279035903856e-001 2.6839391722960966e+000 1 0 0
1971 1 6.2955556571796256e+000 9.0981178157586509e-002 1.9309872034289164e+000 0 1 0
2016 1 6.7548370135777969e+000 1.0320254803276945e+000 2.6716704357102286e+000 0 0 0
806 1 7.3891592913859760e+000 3.7347851834814699e-001 2.1552302664366136e+000 0 1 0
1462 1 7.6149356911542156e+000 7.5879627672198868e-001 3.2254700281008968e+000 0 1 1
1423 1 6.6806163095125521e+000 1.4978225672721532e-001 3.1639907202395965e+000 0 1 1
1571 1 7.9398565651438195e+000 1.2399798206666626e+000 2.2311142978204002e+000 0 0 0
1510 1 3.1072199947720258e+000 5.5628826324754010e-001 7.0695717770935043e-002 0 0 0
1957 1 9.5731759761997868e+000 1.9991318178026118e+000 3.0455856189373858e+000 0 1 1
635 1 8.5846093669758403e+000 4.1145072891762263e-001 1.8950133919294414e+000 0 0 1
890 1 8.8674709138811458e+000 1.0961780790282465e+000 2.7990835321016507e+000 0 1 1
1830 1 8.8817965470053508e+000 1.4572037322449567e+000 1.7947272243591401e+000 0 1 0
691 1 5.2219919342969483e+000 2.7557311220528131e+000 1.0318908058851346e-001 0 0 1
4133 2 1.3872624282761203e+000 4.5940579388450287e+000 3.1960553226738710e+000 1 1 0
2949 1 1.1902290802440143e+000 1.7314131059656324e+000 2.2649527169207495e+000 1 1 1
4245 2 5.3015145105024986e-001 2.3163116936547685e+000 2.2067129249806463e+000 1 0 0
315 1 6.4323720766503112e-001 1.9380738419632733e+000 3.0984009977949740e+000 0 1 0
2495 1 9.1491578185289457e-001 2.8975846596026660e+000 2.6254898083962832e+000 1 0 0
29 1 2.1545225778294141e+000 1.6833809076995914e+000 2.5453215705483694e+000 0 0 0
4302 2 1.4722155007071571e+000 2.0584499997730177e+000 3.0093969360071311e+000 0 1 -1
4225 2 1.7948867479653035e+000 1.9164661799229261e+000 1.6575287253645561e+000 1 0 1
1036 1 2.7398144650517913e+000 2.1529731923524347e+000 1.8543199186988950e+000 0 0 0
555 1 1.8492400229093147e+000 2.6263788418902809e+000 2.2278848404227745e+000 0 0 0
42 1 2.8972880489575679e+000 2.5282093174864149e+000 2.8877514277627530e+000 0 0 0
1115 1 2.7851367303848229e+000 3.2679218269849009e+000 1.7509847786365167e+000 0 0 0
1047 1 4.6970545058883761e+000 2.3893224650269311e+000 2.2302036913355998e+000 0 0 0
3124 1 3.7361951867083567e+000 1.9228714683872741e+000 2.3312691373878298e+000 1 0 1
505 1 3.7358133102422806e+000 2.9285173382496010e+000 2.1787204091127306e+000 0 0 0
3647 2 3.7594092122049769e+000 2.5668976035866686e+000 2.9519390378716377e+000 0 1 1
677 1 4.5032284938992273e+000 2.9965667903329436e+000 3.0128053814718179e+000 0 0 1
1435 1 5.7279210850305171e+000 2.0843696685403952e+000 2.3388640100254547e+000 0 1 0
3612 2 6.1869109793216133e+000 2.7519964107850599e+000 2.7241482089407043e+000 0 0 1
57 1 6.2663432766498124e+000 2.9071307226528824e+000 1.8273815977502459e+000 0 0 0
1068 1 5.4426213349229409e+000 3.0949159558710382e+000 2.4954163603152635e+000 0 0 0
1387 1 6.4142762176255887e+000 1.9449194002353081e+000 3.1629094803726385e+000 0 1 0
1198 1 6.7082140153882497e+000 1.9311903175836378e+000 2.1513116877361531e+000 0 0 1
1214 1 7.4343047305176277e+000 1.9565417726434708e+000 2.9256481113619537e+000 0 0 0
1580 1 6.9946419628540655e+000 2.9164884815824914e+000 2.5109269328857620e+000 0 0 0
1003 1 7.7997983403732372e+000 2.3194030043153524e+000 2.0174867940440326e+000 0 0 0
16 1 7.3314448841142221e-001 3.8966384802715694e+000 6.8622211400430552e-002 0 0 0
3676 2 9.3383366258610057e+000 2.0601536164637841e+000 2.2585157071921054e+000 0 0 -1
1485 1 8.5503987708029090e+000 2.1280211136577663e+000 2.7263784795274453e+000 0 0 -1
2307 1 9.2958412320489234e+000 2.9570320558536705e+000 2.5701406356354211e+000 0 1 0
3495 2 5.3670573131013368e+000 2.7626680889963263e-002 3.0521684068582022e-001 0 0 1
4209 2 1.2330686037591441e+000 4.3373589881666232e+000 1.6148845052646241e+000 1 0 1
587 1 7.5408441188495900e-001 4.0130926893027823e+000 2.2468932747996142e+000 0 0 0
1433 1 1.3179725090219105e+000 3.7480102898273286e+000 3.2147222733828866e+000 0 0 1
593 1 1.7002944519385268e+000 4.3683444808781227e+000 2.4598691270050228e+000 0 0 0
1240 1 1.6180004670131245e+000 3.6063445970680852e+000 1.7589251660013292e+000 0 0 1
4197 2 3.1186336091705691e+000 4.2330755861134817e+000 3.0363562702872482e+000 1 0 0
3540 2 2.4182428086310566e+000 3.9547951710526288e+000 2.0394227216220422e+000 0 0 0
2595 1 2.4304383273297199e+000 3.4321585997480453e+000 2.7857425067233601e+000 1 0 0
772 1 4.4394430017209467e+000 5.9335160238711635e-003 1.5547113984360053e-001 0 1 0
695 1 3.4565109954770028e+000 4.0297097207681594e+000 2.3385400043211693e+000 0 0 1
2982 1 4.5888961997170208e+000 3.7454339772695389e+000 2.0838488326513729e+000 1 0 0
563 1 4.4747256707186098e+000 4.1134220817536606e+000 3.0321843927925562e+000 0 0 0
1442 1 4.2252327834684404e+000 4.6836083543985021e+000 1.7559092013864617e+000 0 1 1
1100 1 6.4358189654255149e+000 4.5722886390408579e+000 2.1158901051037464e+000 0 0 0
3204 1 2.0001371792623693e-001 1.7267820539948904e+000 4.8007370520602910e+000 1 0 1
13 1 5.3355617630229633e+000 4.4037857651218104e+000 2.4569681147815321e+000 0 0 0
997 1 5.7300208260436793e+000 3.8395115772651982e+000 1.6911823334649472e+000 0 0 0
1420 1 6.2772923299978789e+000 3.7023964046847198e+000 2.7196732221866720e+000 0 1 1
3478 2 6.7773578519076247e+000 4.4482748235706522e+000 2.9294823846810445e+000 0 0 0
4017 2 6.7167506935577723e+000 3.7022733419602432e+000 1.9024763135725113e+000 0 1 0
887 1 7.4023687959469173e+000 3.9353095853493740e+000 2.5288494938627202e+000 0 1 1
3951 2 7.9848175338509071e+000 3.6310036399455541e+000 3.1310492161809247e+000 0 0 1
1277 1 8.2692039813440115e+000 3.1765899538483380e+000 2.3892634355680156e+000 0 1 0
649 1 8.2447327876607197e+000 4.0150068489436306e+000 1.8223957077709803e+000 0 0 1
709 1 9.1428905006151400e+000 3.5750738917307547e+000 1.6881144375061365e+000 0 0 0
1009 1 8.3364622724537476e+000 4.4894510133574590e+000 2.7810445859393464e+000 0 0 0
3742 2 8.8639237213958442e+000 3.8121425088685559e+000 2.5138253555393613e+000 0 0 1
2638 1 9.1491725723436286e+000 4.6009116202717673e+000 2.0320365388393600e+000 0 0 1
1486 1 9.4955893477332403e+000 3.5429516919160992e-001 2.4210948598627655e+000 0 0 0
296 1 4.2913932227190275e+000 2.6425372469853197e+000 4.7679340344627397e+000 0 1 0
1066 1 1.4261261037275321e+000 1.2329498844605948e+000 3.2633853978416498e+000 0 0 0
612 1 5.8506380437591665e-001 1.2306639883124122e+000 3.9707233935391533e+000 0 0 0
214 1 1.1941094573404616e+000 3.7996621288564231e-001 4.1907994923175309e+000 0 0 0
1210 1 8.9089132717043906e+000 4.4177514350268723e+000 3.6509093050564601e+000 0 0 1
14 1 2.1688406531693625e+000 4.8986258763675877e-001 3.2642212419600156e+000 0 0 0
4131 2 2.5586695531323520e+000 1.2016841737871122e+000 3.1396799021510273e+000 0 1 0
1688 1 7.9615072344350857e+000 7.0697743583567552e-001 1.5822319266627571e-001 0 0 1
2954 1 1.9002055918308545e+000 1.1702696328714224e+000 4.1800144140754316e+000 1 0 0
758 1 2.8841437021089340e+000 9.6176693758919407e-001 3.8913362139378020e+000 0 1 0
1460 1 4.6697771361905813e+000 6.3263362561783132e-001 4.5678941981191397e+000 0 1 0
115 1 3.7861677705508341e+000 3.8836293603305705e-001 3.9991355615484299e+000 0 0 0
3476 2 4.3732743947534489e+000 1.1666032334285703e+000 3.6896486968753215e+000 0 0 0
3330 1 3.7555147410717864e+000 1.5080367809480029e+000 4.2605839037997351e+000 1 1 0
991 1 4.7596363207258108e+000 2.1739411308046105e-001 3.5686217881819857e+000 0 0 0
129 1 8.0772356473973561e-001 2.6871947906550071e+000 4.7011424521356204e+000 0 0 0
704 1 5.2231053382077643e+000 1.2052154808761841e+000 3.5112899724367725e+000 0 0 0
631 1 5.7110731065777740e+000 6.7935696040219429e-001 4.5288396834666278e+000 0 0 1
659 1 6.2146928584949279e+000 9.9139469172283079e-001 3.6105266873764275e+000 0 0 1
3653 2 6.9610877477090645e+000 1.3423739264958157e+000 3.5689778773243126e+000 0 1 -1
1536 1 7.4373650103708826e+000 1.0165446361090402e+000 4.1751427472828953e+000 0 0 0
1109 1 6.6809404550023421e+000 2.7504082518222300e-001 4.2575283873003285e+000 0 0 -1
3801 2 7.4631341122626011e+000 1.4575571215109473e-001 4.6597399805829145e+000 0 1 1
41 1 3.5070802457007213e+000 3.4263343438856455e+000 4.5350943860054631e+000 0 0 0
1513 1 9.6340206485631033e+000 4.6735443535372836e+000 4.3487873299450035e+000 0 0 0
1623 1 8.3103567993501493e+000 3.5597836185115050e-001 4.8068674663103694e+000 0 0 0
1271 1 8.5874089833741820e+000 6.9698943327784435e-001 3.8053986759533878e+000 0 1 0
2133 1 9.3001065883133140e+000 1.1126707052599436e+000 4.4499031935076356e+000 0 0 0
4039 2 8.9746933466718701e+000 1.4856999303238430e+000 3.6035670687547383e+000 0 1 1
2140 1 7.1094305575171060e+000 3.4739610895754724e+000 3.3756827972589685e+000 0 0 1
1147 1 1.1979605862649758e+000 2.0293307989448461e+000 4.0292262420280540e+000 0 0 1
2579 1 8.0608850188075387e-001 2.9601306363234481e+000 3.7212241361233604e+000 1 0 0
90 1 4.6549730059755321e+000 3.8437022819780400e+000 9.1990573992055361e-002 0 0 0
3012 1 1.7607745291103181e+000 2.7622910449213793e+000 3.3693728610628200e+000 1 0 0
1107 1 1.6911786278549326e+000 3.2904167148436270e+000 4.3642910902158070e+000 0 0 0
8 1 2.2883097838145572e+000 1.9103650454503338e+000 3.5257311860662028e+000 0 0 0
3062 1 2.1819531499809095e+000 2.3449820410122801e+000 4.5131032643238180e+000 1 0 0
4064 2 2.9526246048954952e+000 1.8824543865075309e+000 4.1430450919751785e+000 0 1 1
1844 1 2.7917330913382341e+000 2.8699048197652179e+000 3.8607022833944744e+000 0 0 1
2056 1 7.5467155378394581e+000 4.4023586140564790e+000 3.5119210220181198e+000 0 0 0
1180 1 3.3791498383300884e+000 1.6674730478315876e+000 3.3338377249178448e+000 0 0 0
26 1 4.4102230887571130e+000 1.9445352477627027e+000 3.1688147278944148e+000 0 0 0
3734 2 4.6612933600598412e+000 2.5967320495174397e+000 3.7443167149679839e+000 1 0 0
2554 1 3.7486943504879795e+000 2.5567713764170645e+000 3.8472779441290470e+000 1 0 0
89 1 4.7139203928032050e+000 1.8804770875487988e+000 4.1594826271712968e+000 0 0 0
1618 1 5.3510834895787074e+000 2.4191277904291675e+000 3.2921361319600533e+000 0 0 1
69 1 5.9446529269388764e+000 1.9014504354490827e+000 4.2003482477749712e+000 0 0 0
1528 1 5.3137968526041064e+000 2.8511087320249375e+000 4.2249840743428653e+000 0 0 0
1102 1 6.1967101721765152e+000 2.9438834137592576e+000 3.6307363827922408e+000 0 0 0
3925 2 7.0122705102812457e+000 2.5993936609873858e+000 3.2843866233836390e+000 0 1 0
124 1 7.1762860924953040e+000 2.0736365171762592e+000 3.9539771320721919e+000 0 0 0
160 1 6.9247343352293411e+000 2.9497050935420699e+000 4.3754298789822146e+000 0 0 0
1488 1 7.8500432308284376e+000 2.5248792445572001e+000 4.6220816370237410e+000 0 0 0
521 1 7.9529028194331746e+000 2.7263276074471605e+000 3.4083531925139945e+000 0 0 0
351 1 1.7574553406431339e+000 1.0631363271500817e-001 1.5214224824711648e+000 0 1 0
1905 1 8.3829475292073337e+000 1.5265346214219886e+000 4.6704169887461333e+000 0 1 1
1202 1 8.1407785232574188e+000 1.5727704153190194e+000 3.6518767902188234e+000 0 0 1
4048 2 8.6019462369904218e+000 3.0447766784273678e+000 4.1373274636188135e+000 0 1 0
3677 2 9.3288670885905205e+000 2.0120226493866449e+000 4.6208868898903379e+000 0 1 1
2489 1 8.9413231916222369e+000 2.2920900626772158e+000 3.8899744105842955e+000 0 0 0
368 1 2.0070378028812779e+000 2.5456952596093045e+000 4.9435800023130437e-002 0 1 1
2634 1 3.0477596355192560e-001 3.9366584656800989e+000 3.5897846221058791e+000 1 0 1
1079 1 7.1689564109110493e-001 3.7306357405868957e+000 4.6283337328484997e+000 0 0 0
136 1 1.4799212039654221e+000 4.3318006481752738e+000 4.1203133928670619e+000 0 0 0
853 1 2.3294163390269467e+000 1.2500095272337206e-001 4.3632634212388153e+000 0 1 0
3138 1 2.4410515267909498e+000 4.0031671886773497e+000 4.3459060725864429e+000 1 0 1
3615 2 2.1662416559193711e+000 3.4862969100443539e+000 3.6472219246962942e+000 0 0 0
3071 1 2.2476842059290849e+000 4.3161710171120244e+000 3.3253299803840659e+000 1 0 0
684 1 6.5854359698181248e+000 1.2435999688807720e+000 4.7908329679577877e+000 0 0 0
2998 1 4.4202485574048431e+000 3.4325490240298735e+000 3.9410307001635294e+000 1 0 0
694 1 1.9833525173115457e-001 4.7591586455819685e+000 1.7641163541267857e-001 0 0 1
49 1 4.8456129904452432e+000 4.4292463567006148e+000 3.9350100114515918e+000 0 0 0
1031 1 3.4332939514633734e+000 3.3635027155446471e+000 3.1621075534848044e+000 0 0 0
192 1 4.1405877534895472e+000 4.4050930072435062e+000 4.7127588464873886e+000 0 0 0
3201 1 3.6876280133782160e+000 4.1902857784181045e+000 3.7672858740777997e+000 1 0 0
4214 2 9.1489255017317461e+000 1.7792114883346860e-001 3.2871127236980859e+000 1 0 1
1195 1 5.3707873688704488e+000 3.5635761444086214e+000 3.4288682573363882e+000 0 0 1
2394 1 9.5265403915270532e+000 1.3816828074170123e-001 4.1132750910605829e+000 0 1 0
3732 2 5.2701285173117860e+000 3.7015630396683101e+000 4.2836624712104401e+000 0 0 0
3606 2 6.2641551981491972e+000 4.4735847445940502e+000 4.4975536562962555e+000 0 0 0
3781 2 5.2831246621451564e+000 1.3990196066876535e+000 4.4929781333813565e+000 0 1 1
2539 1 7.9133636777992997e+000 4.5604232799341098e+000 4.4770302814677372e+000 0 0 0
1716 1 7.0628958740200805e+000 3.9025669286619595e+000 4.5456781807176210e+000 0 0 0
1539 1 6.0092944048701664e+000 3.5849288065237515e+000 4.5486298554347844e+000 0 0 -1
3580 2 8.6410804852970227e+000 2.5198422998302568e+000 4.9248764986997040e-002 0 0 0
3620 2 8.7779158944870694e+000 4.4431536855959557e+000 4.5882087658775390e+000 0 0 0
4319 2 1.1275859458215634e+000 2.1512178213062652e+000 1.6936895593193148e-002 0 0 1
1192 1 2.7128436326079153e+000 1.4009546700969711e+000 4.8093998739435957e+000 0 0 0
204 1 1.2127763241390441e+000 8.1213158547863551e-001 5.9895634539076070e+000 0 0 0
231 1 3.1397728254194679e-001 1.1352074416876676e+000 5.7081974553928996e+000 0 1 0
2562 1 8.5969061522467776e+000 3.4095518518729850e+000 9.5691090417560236e+000 0 0 -1
547 1 1.8558547701874271e+000 4.8089135241662229e+000 5.9799450367269014e+000 0 0 -1
2989 1 2.0122531334495117e+000 6.5336022160370311e-001 5.1822947646429203e+000 1 0 -1
3250 1 2.0112456305002762e+000 5.5838004705275134e-002 6.1169867881438265e+000 1 1 0
820 1 2.9571517849185396e+000 6.4218884028980305e-001 5.8698390381156047e+000 0 1 0
713 1 2.2772776381813888e+000 1.2042096656414703e+000 6.3498828724007783e+000 0 0 1
1677 1 9.4469526831179511e+000 2.2514748965138449e+000 9.5473749573727815e+000 0 0 0
1992 1 9.6540362832499440e+000 9.3025557846298368e-001 5.5310769955795775e+000 0 0 -1
1629 1 4.8521117424535953e+000 1.5418594697157637e+000 6.3483327488155510e+000 0 0 0
1851 1 3.9396942243528605e+000 1.1765924220914352e+000 5.9781149003215237e+000 0 1 0
4025 2 4.3548039989907288e+000 5.9441891254873380e-001 5.4782963702067482e+000 0 1 1
3813 2 3.5691675833056822e+000 1.5904745577779074e+000 5.1487160562038117e+000 0 1 1
81 1 4.5744250181189559e+000 1.4929688755573294e+000 5.1369563950937591e+000 0 0 -1
341 1 7.4894219004596496e-001 9.5258155157530180e-002 8.5260166905257133e+000 0 1 0
2017 1 4.5957839209370954e+000 4.1836382692778268e-001 6.2571183964877708e+000 0 0 0
68 1 5.2540986856799226e+000 7.7547123566954612e-001 5.4964684861173358e+000 0 0 0
744 1 5.5859521128282594e+000 2.4345115634403863e-001 6.3784003523081578e+000 0 1 0
742 1 5.8891157038408721e+000 1.2188190447733442e+000 6.2932998969353457e+000 0 1 0
688 1 8.8042642429791371e+000 4.5284184073670666e+000 9.4723132670890653e+000 0 0 0
1593 1 6.2566249100864164e+000 4.8282049659258963e-001 5.4670548107812973e+000 0 0 0
1663 1 7.4948310146003347e+000 8.6816282337561690e-001 5.2485194385556948e+000 0 0 1
3755 2 7.0931126575410133e+000 5.0687242597334448e-001 6.0189701781920588e+000 0 1 -1
837 1 7.7123533743460300e+000 1.1145058836575401e+000 6.3496017641162030e+000 0 1 0
836 1 6.7435217901470725e+000 1.3852269688215406e+000 5.7803637810299957e+000 0 1 0
1262 1 8.5988166188898827e+000 9.7655296864635310e-001 5.6217839284404860e+000 0 1 0
586 1 3.6579258018341547e+000 7.0860488164425695e-001 4.9529728692586072e+000 0 0 0
1185 1 9.1174374414574650e+000 7.0021034523869197e-001 6.5153352814032450e+000 0 0 0
1633 1 6.5319007641339892e+000 1.7817280951303858e+000 9.4321052981666167e+000 0 0 0
34 1 9.5143795470574044e-001 1.9869181260114335e+000 5.6013017532754166e+000 0 0 0
1414 1 2.0389029766163702e-001 2.1978270535612090e+000 6.3587289785210368e+000 0 1 1
1237 1 7.4503866487946158e-001 3.2402232584873256e+000 5.6556294883697982e+000 0 0 0
2559 1 9.6387676225569976e+000 4.2532004583326799e+000 7.8392053734460516e+000 0 0 -1
1514 1 5.1494046047573487e+000 9.1397806240293400e-001 9.5065003339538077e+000 0 0 -1
164 1 1.6685042526156975e+000 2.7286543094108575e+000 5.4330611804944091e+000 0 0 1
553 1 1.9326121795181010e+000 1.6741214338520702e+000 5.4887324762981100e+000 0 0 0
4101 2 2.4611362638901602e+000 2.4182412048740320e+000 5.3725753616357270e+000 1 0 -1
1186 1 2.9345469901016461e+000 1.7859767030796603e+000 5.7381911341433742e+000 0 0 0
55 1 2.2505727208113404e+000 2.3941151513127448e+000 6.2685812669443735e+000 0 0 0
625 1 3.1168520159690458e+000 2.9172884759830375e+000 5.7398800352075758e+000 0 0 1
627 1 3.9427843957748667e+000 2.1630865591309822e+000 5.7088250890343870e+000 0 0 0
4095 2 4.0618436725619889e+000 3.0627763216808357e+000 5.5083656985943481e+000 1 0 0
3050 1 1.6989034823388091e-001 3.2803877160973243e+000 9.0476028739840153e+000 1 0 0
1060 1 5.7159310991798584e+000 1.6360311457210299e+000 5.2210336553297081e+000 0 0 0
2216 1 6.1613145082449385e+000 2.3813260866069399e+000 5.9840829675796661e+000 0 0 0
2053 1 5.1337875424998964e+000 2.5071366599750453e+000 5.6500573420611921e+000 0 0 0
1516 1 8.4821049767223471e+000 1.6483735751524802e+000 9.5702416706606819e+000 0 0 -1
3743 2 1.1337011548590068e+000 4.8536506003672858e-001 5.1919472044677164e+000 0 0 0
2590 1 7.1227219052811108e+000 2.3783276579007446e+000 6.1653762848182749e+000 0 0 0
573 1 6.9690217496319349e+000 2.1806244607062100e+000 5.0980122036369240e+000 0 0 0
995 1 7.9209074711132113e+000 2.9923227581313681e+000 5.5437083818943265e+000 0 0 0
1010 1 7.8153188576101060e+000 1.9329687198376424e+000 5.5966062381698896e+000 0 0 0
3723 2 6.5946330599902678e+000 3.1295795826689385e+000 6.2218836066975962e+000 0 0 -2
498 1 9.0416460882651268e+000 1.8655270696468480e+000 5.4156484646256962e+000 0 0 -1
3750 2 8.6345412118312179e+000 2.5354996372828293e+000 5.7642760000689872e+000 0 0 0
1866 1 8.6200276264795956e+000 6.0735365040295766e-002 7.3049645722903582e+000 0 1 0
804 1 8.6014349900241562e+000 1.6852348129136343e+000 6.4527172671426767e+000 0 1 0
1700 1 8.2133691310057788e+000 2.7510772176941889e+000 6.5060104473272204e+000 0 0 0
3057 1 2.6555619612085007e-001 2.3407591995956842e+000 9.5660231360097931e+000 1 0 -1
4270 2 7.7948569138964729e-001 4.0859682546830625e+000 5.6465966418244236e+000 1 1 -1
3624 2 1.4112608405836584e+000 2.1164242255448227e+000 4.8692280863279391e+000 0 0 0
585 1 1.2669610589639144e+000 4.0298731428781052e+000 6.3713356547913005e+000 0 0 0
420 1 1.5749285725713502e+000 3.9877516766684882e+000 5.3081737453448454e+000 0 1 0
1187 1 2.5718380055113270e+000 3.1722479008086744e+000 4.9495815657243325e+000 0 0 1
577 1 2.0476850523516772e+000 3.4930939221651043e+000 6.0477486884095359e+000 0 0 -1
522 1 2.6989859271918033e+000 4.1527090418572739e+000 5.4639745766682850e+000 0 0 0
3776 2 3.0904144547209258e+000 3.7581588753997508e+000 6.1456302003620280e+000 0 0 0
1620 1 9.5962975272212354e+000 3.2863132978635119e+000 9.4241559927984735e+000 0 0 0
135 1 3.7295801025594018e+000 3.8773495458298530e+000 5.4817375601832961e+000 0 0 0
4162 2 9.4751485149065164e+000 3.3314043564975711e+000 5.2036254754560574e+000 0 1 0
3021 1 3.6078342561961625e+000 4.4820986755021819e+000 6.3441287459966054e+000 1 0 -1
1108 1 4.8535038942969679e+000 3.5191824621381604e+000 6.1050993747294973e+000 0 0 -1
173 1 5.8805672048631559e+000 3.3565338058657259e+000 5.7733112956390462e+000 0 0 0
4200 2 5.3955517176898917e+000 3.1628999078816009e+000 5.0434642492044217e+000 1 0 0
1119 1 5.5264108004397086e+000 4.4483767976140500e+000 5.9369787812446804e+000 0 0 0
451 1 1.4525088449465657e+000 2.8699260834259264e-003 7.7167493353250425e+000 0 1 0
1123 1 6.3955295960574263e+000 4.2641692720852724e+000 5.3120965502110451e+000 0 0 1
3777 2 8.3198128718334576e+000 2.6482458094658257e-001 6.3197166269371694e+000 0 1 0
3744 2 7.1460604070813458e+000 4.6353126856345064e+000 6.0300550985103953e+000 0 0 1
1228 1 6.8506983681752702e+000 3.2093661616896108e+000 5.4340200126901888e+000 0 0 0
1111 1 7.5443991682149996e+000 4.0771799113867955e+000 5.4806348873027355e+000 0 0 0
2115 1 7.3850321796114988e+000 3.4478337055044039e+000 6.3280618830325954e+000 0 0 1